 25
 i =     6000, time =     3000.000, E =     -1117.0229781747                                        
O   13.1841410822  17.6289236795  15.1444545030
H   13.7171974717  16.8105018317  15.2005674208
H   13.6522995721  18.2125800570  15.7650512108
O   12.2276658020  13.2666185463  13.8876790435
H   12.4649161041  12.5266233741  13.3095647884
H   13.0352492799  13.6568265758  14.2192575618
O   16.9476092068  12.4643102380  15.3449369529
H   16.2371819717  13.0946008553  15.1439126430
H   16.4988485643  11.5579306570  15.1252371380
O   16.1408735475  17.6066554122  17.6272420989
H   17.1098077020  17.7320987833  17.6994032057
H   16.0215344751  16.8971635235  16.9087987900
O   17.5131912703  16.0251862796  15.8531907128
H   16.7389386542  15.6158768339  15.3611438738
H   17.9665367036  15.2195960118  16.3213097413
O   15.4109341650  16.4504299126  11.8174096871
H   15.4746007448  15.9703811053  10.9540339758
H   15.3322767033  15.7351612899  12.4367527819
O   15.2938815139  13.7716447121  18.0426533692
H   14.6465300354  14.3467667984  17.7219900199
H   15.9164404251  13.4487781060  17.3360689330
O   12.5459276423  14.7883562576  17.9616442860
H   12.0738569107  14.9872953265  17.1410474148
H   12.1091502168  13.9840946184  18.3284930606
Cl  15.0000000000  15.0000000000  15.0000000000
 25
 i =     6601, time =     3300.500, E =     -1116.9909250366                                        
O   12.6883363850  17.1259828462  14.9530536196
H   13.3177561749  16.4435155383  14.8136022606
H   12.8790457738  17.4492033995  15.8580014481
O   12.1234142945  12.8333925188  14.9784380327
H   12.3462531020  12.4316352967  14.1011523357
H   12.9805009736  13.3448089134  15.1320521647
O   16.0227327739  12.5480694957  16.5729081418
H   15.6586978264  13.1991919244  15.9562659286
H   15.8870708272  11.6536549801  16.1767664764
O   15.7424172913  16.5011923276  17.6415814455
H   16.7126113846  16.4476646764  17.5546834702
H   15.5880767217  15.8398870509  16.9210236457
O   18.4157477285  14.8136668112  16.3754683421
H   17.5155934228  14.8888292684  16.0264138224
H   18.3556110899  14.2980426694  17.2583544621
O   14.8224424503  16.2921139324  12.0186804012
H   14.8945169488  15.6425851999  11.2357224340
H   14.8901396819  15.6912785900  12.7764590585
O   12.2940981661  14.5269707903  17.7840259619
H   11.5415193188  14.4949691656  17.1934042634
H   12.1597129368  13.7953196722  18.4524551565
O   15.8633661722  12.4271251925  12.0337514977
H   16.0138257498  12.4781846390  13.0112842443
H   16.5011025126  13.0052608971  11.6030494461
Cl  15.0000000000  15.0000000000  15.0000000000
 25
 i =     7202, time =     3601.000, E =     -1116.9971837995                                        
O   12.2753784227  16.3580814893  15.3743652587
H   13.1274548542  15.7360297425  15.3053011959
H   12.4243555815  16.8166750190  16.2701331513
O   11.7629368427  13.9318099289  13.4629278011
H   11.7093214801  12.9527510803  13.3191915469
H   12.5278252978  14.1602707983  14.0674877244
O   14.9979505546  11.7961792181  14.8773449022
H   14.6037740601  12.6871810084  14.7895682625
H   14.3008568365  11.2501906116  14.5073064364
O   15.0924664538  15.0647498918  18.4256554327
H   15.9973121203  14.9662460123  18.7576343356
H   14.9542413239  15.0844676679  17.4529869474
O   17.9622822231  14.9401976433  16.0974923048
H   17.0352902144  15.2171408393  15.8624502011
H   17.8849406342  14.1003638056  16.6295383932
O   15.6353593288  15.0391590614  11.6750985778
H   15.0614083457  14.4630869363  11.1038758117
H   15.4373952059  14.7396413779  12.6212083709
O   14.0960328214  18.2286017292  13.5861548767
H   14.1095500695  19.0964056828  13.9842709729
H   13.6312630269  17.6119920190  14.2133464851
O   17.7830381502  12.0087587468  14.6693957707
H   17.7704284110  12.9879581497  14.6371771654
H   16.8764122862  11.6938776394  14.9169290321
Cl  15.0000000000  15.0000000000  15.0000000000
 25
 i =     7803, time =     3901.500, E =     -1117.0262624352                                        
O   12.8590661026  17.4018064699  14.6617709906
H   13.3793449634  16.6045829764  14.4630804822
H   12.9642789893  17.5447852178  15.6336729170
O   12.3060409440  13.9408776366  13.4911196471
H   12.4397941458  13.1293289147  12.9386153125
H   13.1621722397  14.1391333265  13.9430736584
O   16.6355931728  12.2928365643  15.0189480930
H   16.1525309671  13.1473586070  15.1180558904
H   16.0989880709  11.5114770309  15.3935363877
O   15.1471210169  16.0422270379  17.8046154318
H   16.0172087579  16.5596127722  17.9482532353
H   15.2405986137  15.7331647108  16.8774362287
O   18.2478382084  15.2135242456  15.5508822921
H   17.3322188452  15.3176465861  15.1107635284
H   18.2883903445  14.4200918096  16.1796182240
O   15.6394824076  15.9593115721  11.5889075741
H   15.3638730047  15.5085001161  10.7901680409
H   15.5514199942  15.2946685553  12.3361537307
O   15.0221131376  12.9453032395  17.7663786256
H   14.4810276526  13.5749980471  17.2596499446
H   15.9090132657  13.0407461760  17.3760067191
O   12.0407371199  15.1056243134  17.5765614995
H   11.5219956231  15.0692361465  16.7185975006
H   11.8342746362  14.2520550375  18.0130208160
Cl  15.0000000000  15.0000000000  15.0000000000
 25
 i =     8404, time =     4202.000, E =     -1117.0007925052                                        
O   13.5698752360  18.0708775135  14.4426052617
H   13.2449197351  17.1525497128  14.3973945666
H   13.5799861601  18.2381869847  15.3781862575
O   13.1954893564  14.3964096816  12.3899100219
H   13.4048767207  13.5766218020  11.8684964152
H   13.8921563214  14.3555272472  13.1482142581
O   17.5149368016  14.3314866567  17.9894223179
H   18.4310741574  14.1016459291  17.7802605522
H   17.6657566942  14.8473020975  18.8889146468
O   16.3197984402  11.6703957322  13.9867024912
H   15.8966597134  12.5012858204  13.6884649356
H   16.0519815175  11.6525750171  14.8993279852
O   15.6548876197  16.5380740441  17.6827752008
H   16.5620183927  16.8056776748  17.8470566052
H   15.6307663987  15.8630421806  16.9689141041
O   18.3523617591  15.5879817751  14.4180663889
H   17.6473985387  15.0216624368  13.9544840318
H   17.9244117423  15.8054859774  15.2705416023
O   15.5595611535  16.5023566506  11.9771363025
H   15.0105001328  15.7474960494  11.6042477523
H   15.4063380497  16.4514145228  12.9959215481
O   15.1346676993  12.8257333933  17.0746277795
H   14.8646703828  13.4923524008  16.4429190580
H   15.8574241155  13.2108036036  17.6263232564
Cl  15.0000000000  15.0000000000  15.0000000000
 25
 i =     9005, time =     4502.500, E =     -1117.0101947206                                        
O   14.6466600535  17.7015569269  14.0335964200
H   14.7943028632  16.8412007301  14.5378242242
H   14.9509010912  18.4800992289  14.5940497134
O   11.0897059792  14.7147572018  15.0936616959
H   11.7858313047  14.6502565338  14.4442165411
H   10.3152984877  14.1442679670  14.8955499833
O   13.0750652803  14.2438694844  12.5051419506
H   13.4759423568  13.5060591749  12.0091384526
H   13.7715758386  14.5603178005  13.1040386586
O   14.9440505359  11.6433402095  13.9446960147
H   15.4133825867  12.2915481541  13.4856716787
H   14.3586477968  12.1669208749  14.4945981820
O   15.6348528229  16.8415948107  18.0588150732
H   16.5294200293  17.1110075342  18.3424263600
H   15.7551895677  15.8777657724  17.8145786648
O   18.3802567317  15.0904979658  15.0988201684
H   17.4262552017  15.3585487530  15.1253465312
H   18.8152582765  15.5098585917  15.9208015485
O   16.9207654054  16.0108075988  12.2238426401
H   16.3501878605  16.3084635913  11.4703457051
H   16.3243236885  15.4889468283  12.7980333910
O   17.3913402447  12.4977426109  13.1283691262
H   17.7469356420  11.9327941121  13.8186787253
H   18.2046577780  12.8175376473  12.6851912411
Cl  15.0000000000  15.0000000000  15.0000000000
 25
 i =     9606, time =     4803.000, E =     -1117.0193171656                                        
O   14.6563423201  18.0361386854  14.3199871186
H   14.8792844293  17.1466574507  14.8030341220
H   14.1083107160  18.5106802114  15.0428984815
O   11.9318266335  14.2715500455  14.1550266597
H   11.5490380241  13.4409623520  13.8333316336
H   12.8886293709  14.1634480103  14.4517447931
O   14.2531302598  11.8565479720  14.3706076730
H   13.9104304701  11.8261835480  13.4601046536
H   14.7196681620  12.7814494959  14.4085224343
O   15.6484626263  17.4379772917  17.9433208955
H   16.5621279234  17.6144074427  17.6254189268
H   15.6233072902  16.4586761178  18.0233499845
O   18.4237898207  14.8003859783  15.1296671629
H   17.7628397592  14.1304574090  14.7538868386
H   18.0215220548  15.1446080909  15.9750738811
O   16.3428761728  16.0871873417  12.3261703672
H   15.6854454193  16.6583092183  11.9433274834
H   15.9449326305  15.7666477163  13.1726701505
O   14.3912797961  13.0794456464  17.3331881387
H   14.4250219476  13.5539394077  16.4764428557
H   15.0876690918  13.5412875971  17.8668963765
O   17.2553181025  12.9764561199  13.3442292445
H   17.5896546813  12.1878295917  13.7965784911
H   17.9566475388  13.4324640999  12.7914363972
Cl  15.0000000000  15.0000000000  15.0000000000
 25
 i =    10207, time =     5103.500, E =     -1117.0074719125                                        
O   14.1941993376  17.8812429087  14.5224573206
H   14.4153202113  17.0531178097  14.9319990183
H   13.8486112404  18.4532273205  15.2464924014
O   12.1519022113  13.9615458082  15.0310381491
H   12.1304952545  12.9994988834  14.7129321336
H   13.1484789267  14.2754755380  15.0154542019
O   16.7518183437  14.1235295672  17.9119102426
H   17.0351549286  13.1173668381  17.9974059721
H   16.5937625778  14.4968255448  18.8169203677
O   14.7543441821  11.6016747553  15.3512801784
H   14.1421537052  11.5632773446  14.6078412819
H   15.3580498245  12.2717377017  15.0502028201
O   15.0724962520  16.7124092814  17.6677748556
H   16.0082470930  16.9487902582  17.5888527869
H   14.9612414455  15.9493128774  17.0118555125
O   18.4866284236  14.1536168735  15.8319332872
H   17.9306412594  13.5565665804  15.2907690749
H   18.0413437572  14.2935912467  16.7213296723
O   16.4532552078  16.0417258387  11.9483259186
H   15.7186903180  16.1805660483  11.2359917318
H   15.9053974293  15.5588173558  12.6264749426
O   13.8611133338  13.0954338137  17.8944200023
H   14.1942024842  13.1105383409  16.9383248969
H   14.4066187083  13.7612150571  18.3789520137
Cl  15.0000000000  15.0000000000  15.0000000000
 25
 i =    10808, time =     5404.000, E =     -1117.0244783236                                        
O   15.0740783159  18.0321232977  15.0367489710
H   14.8624953274  17.0159879672  15.2027020893
H   14.6684697892  18.4256522666  15.8542418535
O   12.3205168063  15.7260635087  13.6349997373
H   13.1607780463  16.0086669359  14.0397908415
H   12.1097410824  14.9168361573  14.2068557344
O   13.5335596608  15.2177618106  10.8344218877
H   12.7879350085  14.9390407078  10.2389834499
H   13.1097006201  15.6020682175  11.6325182444
O   12.1111253290  13.5992996066  15.3346052725
H   11.7745560381  12.6549705081  15.0350111542
H   13.0743443680  13.4705174469  15.3313994227
O   16.0423351738  11.6961512386  15.8379705713
H   15.5722397068  12.5056086329  15.5929029710
H   16.9615161430  11.8326578593  15.4286376268
O   15.9968381482  16.6416085869  18.9132042951
H   16.6552006301  16.3597715450  19.5366647064
H   16.1311319940  16.1238193352  18.0947753643
O   17.3840283667  15.3214777860  12.6927584407
H   17.0666330392  15.8869187194  11.8704744499
H   16.6106327120  15.1834169869  13.3640865855
O   13.7297697670  12.6227843147  12.6164475767
H   13.9458007400  13.4589922484  12.1991289277
H   14.6209276906  12.1828052610  12.6173355870
Cl  15.0000000000  15.0000000000  15.0000000000
 25
 i =    11409, time =     5704.500, E =     -1117.0300020126                                        
O   14.7921645270  18.0563209168  14.0622997295
H   15.0706055613  17.1457664791  14.3571776330
H   14.7404041751  18.5450497984  14.9226800949
O   12.0994780796  17.1795461606  13.2520056250
H   12.9176015343  17.2546801908  13.7511122973
H   11.7570000245  16.3091181395  13.6518362312
O   11.9009042406  15.6220872471  17.5586641613
H   12.0901813684  15.3363870989  16.6424065496
H   11.0939160041  15.1451146637  17.7981302858
O   11.6909337604  14.7686218666  14.5202150534
H   11.5779168479  13.9305206501  14.0590124502
H   12.7047300581  14.9308914535  14.6857886062
O   16.7832632955  12.2161270462  15.0968912866
H   16.3514503990  13.0905786153  15.1075215240
H   17.8429033615  12.3442522550  15.1626731309
O   15.7953280874  16.7118552889  17.5678844164
H   16.4885551097  16.4018417809  18.2210683247
H   15.7517187396  16.0410543992  16.7888213512
O   17.0698487899  15.5781792810  12.7513967072
H   16.7649241492  15.7159172386  11.8167111111
H   16.2204559695  15.4122508847  13.3318764935
O   13.5303043679  13.4268147296  11.7411908768
H   13.4476762084  14.4154575689  11.7868776807
H   14.3047737205  13.1064794154  12.3571168418
Cl  15.0000000000  15.0000000000  15.0000000000
 25
 i =    12010, time =     6005.000, E =     -1117.0657579459                                        
O   13.4786482257  17.9058285543  13.9897639521
H   14.0405466874  17.0754756089  14.0823574640
H   13.3845210139  18.2479371822  14.9747574443
O   11.6353034088  14.5463393043  14.3882771347
H   11.2949340837  13.6819155639  14.0534983409
H   12.6429815483  14.4244563285  14.5237193067
O   16.3733638615  13.9639085576  18.1189078202
H   17.0555534613  13.3347484237  18.3850668234
H   15.9922245189  14.3351941634  18.9183628216
O   15.4963895203  12.0854939814  14.2303629595
H   15.1222617662  12.8772296923  14.7122182127
H   16.4352235373  12.1483141776  14.3887948768
O   16.2125356264  16.8990545149  17.3275252426
H   16.3180786238  16.6577341806  18.2643389408
H   16.0553005422  16.0871150440  16.7909631586
O   18.6338916620  14.6147038519  15.7608198742
H   18.4688128666  13.9059515561  15.1261922920
H   17.7885395158  14.7471205732  16.1470958323
O   15.1910013361  14.7286105154  11.7422995727
H   14.4916304793  15.3112052020  11.3190308054
H   14.9562531024  14.6778655341  12.6900694869
O   13.2429510435  14.2523239813  18.2052896549
H   12.3546876868  14.3223243092  17.7286628784
H   13.8284776789  14.2863263656  17.4381643709
Cl  15.0000000000  15.0000000000  15.0000000000
 25
 i =    12611, time =     6305.500, E =     -1117.0387422100                                        
O   14.1888894363  18.1338624640  14.2131765224
H   14.1829571053  17.1382923990  14.3778365334
H   13.9450116160  18.6133581880  15.0408453718
O   15.3663072024  11.9615906710  16.5725529445
H   15.5517214043  11.8433397818  15.6298944922
H   15.5118652414  12.8821832988  16.7510156059
O   12.2786444746  14.5838983520  13.8938433855
H   11.9850050726  13.6871534171  13.6699297221
H   13.2397244883  14.4668774158  14.1346034088
O   16.8983244642  14.4359271764  17.8399645500
H   17.3978041445  13.7583162396  18.4162319224
H   17.3486955844  15.2705730653  18.0652264737
O   16.3352659930  12.5888115339  13.9168978191
H   16.1550305338  13.4119425631  14.4627109435
H   17.3101975883  12.5409682711  13.9367353769
O   16.3773078061  17.2887178402  17.5838771597
H   15.9990562869  17.1640250059  18.5238662140
H   15.8818405896  16.7978748946  16.8889164176
O   16.2828841903  16.0186026834  12.0806686798
H   15.4627916603  16.3560660153  11.5200701369
H   15.8883948327  15.7568988437  12.9515501049
O   13.1771279564  15.0409362851  18.2542273336
H   12.4249109800  15.0709837123  17.5898400100
H   13.8713691254  15.4157361038  17.6918451580
Cl  15.0000000000  15.0000000000  15.0000000000
 25
 i =    13212, time =     6606.000, E =     -1117.0288942331                                        
O   13.8530520950  17.8445336400  14.5161470450
H   14.2908687101  16.9458310004  14.7132932748
H   13.5719478565  18.0226728902  15.4691783853
O   11.8439234228  16.4314117156  12.7369634679
H   12.4294585279  17.0892558666  13.1045593647
H   11.7488801277  15.7654477336  13.4708971130
O   14.7410556404  11.6220286274  17.0819909056
H   14.6400490570  10.7534338929  16.5885658514
H   15.4980530709  12.0996933962  16.7197720675
O   11.8823907545  14.3934936658  14.2460712535
H   11.6062850144  13.4838414075  13.9190160936
H   12.8560145941  14.4474910253  14.3493695672
O   16.0380537990  11.8734219216  13.9089639484
H   15.6443406652  12.7666578779  13.7674696813
H   16.9993894572  12.0038674024  13.7418290936
O   16.3673857635  16.7654456794  17.7395137103
H   16.5794155829  16.3100985248  18.5997500675
H   16.3683424274  16.0849253945  17.0366796158
O   16.3514927115  15.6496784340  12.0465676686
H   15.7665321940  16.2201491756  11.4806831573
H   15.8136787761  15.3906948104  12.7915435310
O   13.6205195442  15.0500238178  18.1942967334
H   12.6680403326  15.0796476857  17.8523208340
H   14.1774655115  14.9821685784  17.4078436000
Cl  15.0000000000  15.0000000000  15.0000000000
 25
 i =    13801, time =     6900.500, E =     -1117.0361419382                                        
O   14.1206429497  17.7715711595  14.0719444707
H   14.5400976728  16.9022875249  14.1697355907
H   13.6171490207  17.9416031397  14.9199392435
O   12.1001166234  14.5440705941  13.9252101972
H   11.7268989203  13.5801174422  13.7276593648
H   13.0638606876  14.4432446228  14.0015344555
O   18.0145225765  13.7435301707  16.6737706004
H   18.3275267365  14.3715895483  15.9766912523
H   18.6279208218  12.9605300778  16.5785652733
O   15.7694516657  12.1183833219  14.2372146994
H   15.4197317790  13.0513176183  14.5103932042
H   16.7291243414  12.2505359071  14.2059453394
O   16.4848237717  17.2351028530  17.2332496403
H   16.5850470990  17.0165784670  18.1933390518
H   16.2069975408  16.4004160006  16.8694604090
O   16.1399091470  15.6332215029  12.0413224924
H   15.5550486574  15.6931470786  11.2223340653
H   15.6368511668  15.1972296350  12.7181139553
O   13.1598121475  11.8888851050  16.1359972498
H   12.9667830493  11.1221188020  15.5391281177
H   13.9981388707  11.5863358139  16.6262825218
O   13.6026377755  14.9892334493  17.5740559825
H   12.5777922405  15.0228254685  17.3873094729
H   13.9331131531  14.8805266594  16.6321109004
Cl  15.0000000000  15.0000000000  15.0000000000
 25
 i =    14402, time =     7201.000, E =     -1117.0451497652                                        
O   13.9668048752  18.2596838772  14.9985096407
H   14.1868881205  17.2693894855  14.8901866850
H   13.1701292473  18.3475255995  15.5396744698
O   12.1430200855  15.5197496878  12.7528210017
H   12.9763981397  16.0999246414  12.5116933090
H   12.3695332970  15.0806193653  13.6146891486
O   12.1198653540  13.4517460812  14.5825016409
H   11.7227836714  12.7865321662  13.9973647405
H   12.9752512843  13.0988155601  14.9786065597
O   15.4454765745  11.9088894235  14.1227167067
H   15.0894650188  12.8713816077  14.1738250758
H   16.3904428509  11.9933702307  14.3350672061
O   17.2764116874  15.6549400740  17.1720963527
H   16.8863796084  16.0641520523  17.9784057509
H   16.5898103937  15.5712541436  16.4820568413
O   15.9909619415  14.5769724483  12.0285920022
H   15.3854127968  14.0980708328  11.4554480217
H   15.5376483022  14.6115876497  12.8847357947
O   13.6405117714  15.0740621959  17.8677571639
H   12.6854509204  15.0126130298  17.4318613668
H   14.2094045118  14.9950709549  17.0524381512
O   17.0714592888  17.2655584380  12.7054625145
H   16.6426095521  17.8225306040  13.4388530008
H   16.4025108942  16.5528970542  12.5720645207
Cl  15.0000000000  15.0000000000  15.0000000000
 25
 i =    15003, time =     7501.500, E =     -1117.0526073831                                        
O   13.5566382901  17.9260736102  14.7460466209
H   13.9602810776  17.0085354438  14.7061906845
H   13.8455857949  18.1954814709  15.6304104499
O   11.9250418449  15.1106775614  12.6255395556
H   12.6783373394  15.7636585257  12.6145417957
H   12.0947595924  14.4168535970  13.3198287511
O   11.9185331837  12.6962376217  14.6189028572
H   11.4091134055  11.8682379012  14.3589977466
H   12.2983786193  12.4648589211  15.5262656194
O   14.7221495561  11.7670503746  14.0587886101
H   13.8676856287  12.2904794823  14.1171894336
H   15.2680076891  12.4576136620  14.4402661080
O   17.3617977798  15.7018890161  16.7583438970
H   17.4520133449  15.7431219777  17.7336954863
H   16.4554632559  15.4837412489  16.5113701552
O   15.9201014007  14.9509161694  11.4826863568
H   15.4114180888  14.9912814570  10.5861945981
H   15.2732396204  14.6993737372  12.1717460722
O   13.5005804860  14.8361293949  17.6884045587
H   12.6706141669  14.6054589639  17.2435656034
H   14.1323170573  14.8555097605  16.9410740651
O   17.1824080405  17.1983963425  12.4020005519
H   16.7482824263  17.7359911603  13.1084686322
H   16.4580715203  16.6181947717  12.1417846639
Cl  15.0000000000  15.0000000000  15.0000000000
 25
 i =    15604, time =     7802.000, E =     -1117.0691766836                                        
O   14.9088513320  18.0201570957  14.5312743517
H   14.9944998713  17.0640617443  14.7768983753
H   14.9792156566  18.5502169198  15.3391839172
O   12.9359321675  16.1529275141  12.9054087715
H   13.5728689453  16.9593053642  12.9302731414
H   13.1061453733  15.6092731871  13.7067704704
O   11.5592884210  14.8442630013  16.4337029036
H   11.9306305535  14.2384410810  15.7519919914
H   10.9945800925  14.2084092176  16.9264980851
O   12.6414932448  12.2631074020  14.9513505111
H   12.0863213145  11.8389213790  14.2619480117
H   12.4224649456  11.8057378745  15.8046677047
O   15.2612403842  11.3778801186  14.6007163403
H   14.4285121915  11.8241264619  14.6466433414
H   15.8898406647  11.8473744916  15.2206471010
O   17.5840929768  14.9819370243  16.6639377936
H   17.0980420016  15.0625940488  17.5429784423
H   16.8520761241  14.5029710211  16.1724958537
O   16.8522419541  14.1719515711  12.1726375039
H   16.4228131295  14.6179067629  11.4158396179
H   16.3338508409  14.2259311695  12.9789502959
O   13.8595955128  14.3099702962  18.0598134372
H   13.0311667443  14.3025293402  17.5732538922
H   14.6154683835  14.0907305365  17.5273397632
Cl  15.0000000000  15.0000000000  15.0000000000
 25
 i =    16205, time =     8102.500, E =     -1117.0502331258                                        
O   14.7627328657  18.2795438702  15.2723756261
H   14.7432618262  17.3092710607  15.3605209280
H   13.8437908616  18.5006631347  15.6292411555
O   13.0175952675  16.6341222907  13.2636125371
H   13.7513510799  17.1654171732  12.8632948695
H   13.5129575912  16.1129193498  13.8948323928
O   11.8168690217  15.5217504581  16.0979499324
H   12.4100633991  14.7580535928  15.9733806997
H   11.2795397087  15.0754641550  16.7850453979
O   12.7788000468  12.7422852153  16.2999524266
H   11.9941140224  12.4589704629  15.8233480708
H   12.8555779426  12.1222697439  17.0740043158
O   15.2606935778  11.7358129918  15.4093137906
H   14.4751384301  12.2708154526  15.7514613469
H   16.0502552689  12.1072691410  15.9234621407
O   16.9210905811  16.2951205811  17.4840113650
H   17.1221506195  15.9497044527  18.4351604541
H   16.5021813669  15.5999254507  16.9286911201
O   16.8623405285  15.0082445788  12.6585061602
H   16.3998470019  15.2992691727  11.8027772591
H   16.1415748631  14.9204031153  13.3319616935
O   14.1059103637  14.5002645446  18.6074119481
H   13.3340276433  14.1519715797  18.1413628590
H   14.7640573103  14.9820580058  18.0207911865
Cl  15.0000000000  15.0000000000  15.0000000000
 25
 i =    16806, time =     8403.000, E =     -1117.0256864469                                        
O   15.2024941190  11.5745941534  12.8910578763
H   15.3159513122  11.7407733693  13.8857145341
H   15.9436229366  12.0373095720  12.4691551051
O   14.2739141896  18.2521638547  14.9330823193
H   14.5632944802  17.3513924681  15.2298449225
H   13.4241253282  18.4031950108  15.4355688169
O   13.4044724463  16.4641630432  12.3704882658
H   14.0094057422  17.0486640669  11.8520538864
H   13.9283481191  16.1887127257  13.1127482144
O   11.8854033716  14.7096803752  15.3715105624
H   12.8307206670  14.7648875970  15.4921288482
H   11.5006411905  13.8206535984  15.5743871521
O   15.4557031676  11.2366857943  15.5358139976
H   14.7827418043  11.7943385880  16.0364041552
H   16.3682572656  11.5716940527  15.6762713259
O   18.0508514933  15.3894034714  17.0410322039
H   17.6151113000  15.0920875489  17.8765827143
H   17.4211178497  14.9077208730  16.3754889396
O   16.7009251493  14.2841535929  12.4653262277
H   16.0889184444  14.3149253653  11.6574995837
H   16.1973575093  14.3721163675  13.3252511667
O   13.5932041489  13.8732419050  18.5804651909
H   12.7213326166  13.9623168907  18.9995956516
H   13.5066662508  13.1035528704  17.9946401472
Cl  15.0000000000  15.0000000000  15.0000000000
 25
 i =    17407, time =     8703.500, E =     -1117.0402662978                                        
O   15.8050135386  17.9744488317  15.4854233535
H   15.5044548698  17.0703331672  15.4389528167
H   15.7557923153  18.2213246358  16.4421034833
O   13.9449580177  16.8500867278  12.6948137965
H   14.5599304144  17.1733712728  12.0328406603
H   14.3658741875  16.2141782044  13.3837384970
O   11.7146497924  15.8853720940  15.8586467071
H   12.5603409260  15.7031887698  15.4056880342
H   11.2885629251  14.9828174365  15.9040453149
O   13.0595481572  14.3064730610  11.3751155972
H   12.0786479951  14.4295283842  11.1765793727
H   13.3040212531  15.2418373748  11.6745712575
O   13.7998155013  13.1523693740  17.5460937592
H   13.4657020264  13.5756903537  16.7680081151
H   13.0415754189  12.5810885910  17.8068454386
O   17.0817543065  12.1878378516  15.9223224047
H   16.4803795329  12.8250275262  16.3461379609
H   17.9795430955  12.5807308295  15.9886269788
O   17.9338909186  15.6982930079  17.1882268646
H   17.9261070260  14.9956725571  17.8451341240
H   17.1545402028  15.4432421703  16.5906500971
O   17.1126995722  14.9383166366  12.3749357986
H   16.5619773900  14.7489282989  11.6222537355
H   16.5531041641  14.7776759021  13.1729459894
Cl  15.0000000000  15.0000000000  15.0000000000
 25
 i =    18008, time =     9004.000, E =     -1117.0108600361                                        
O   15.6843581638  18.4112484713  15.2675690259
H   15.6337098910  17.4259177668  15.2529961144
H   15.5771419461  18.6733880929  16.2423538863
O   13.3036946931  16.1615564824  12.7685349188
H   13.7919137455  16.8655005335  12.4007814941
H   13.6757544983  15.8920994502  13.6783981609
O   12.0982088561  15.7211977400  16.7001069012
H   12.7282686918  15.5466370955  16.0066127905
H   11.5687539006  14.9530943546  16.8163199645
O   14.2159019313  12.9604257022  17.6557076546
H   14.4224994534  13.7468125311  17.1560555856
H   13.3858868830  12.6391701010  17.2526002983
O   16.0492017434  11.3667390071  15.7015896672
H   15.3493937115  11.8060520426  16.2447651211
H   16.9106344807  11.7371387971  16.0513911961
O   17.5627286533  14.0568605394  16.9102361041
H   17.3536678338  14.0700721649  17.8527203117
H   16.8162650227  14.5389523856  16.4122808009
O   17.6067931883  14.5993691099  12.9109254083
H   16.8426068949  14.5383397474  12.2440626411
H   17.1478422519  14.5064207600  13.7860183110
O   15.0908484372  16.1001112507  18.2615084630
H   14.2093389741  16.0084556151  17.8760175169
H   15.1613511396  15.5134864317  19.0080738827
Cl  15.0000000000  15.0000000000  15.0000000000
 25
 i =    18609, time =     9304.500, E =     -1117.0268835320                                        
O   15.9851492202  18.2385299213  15.0004506173
H   15.5198160239  17.4033003888  14.9140328301
H   15.8398062493  18.4150027533  15.9874787392
O   14.0995835206  15.7302767781  12.0627662374
H   14.7419000898  16.3262857886  11.5077991283
H   14.6312558108  15.6404933688  12.8957148898
O   12.2441440696  15.2983927655  16.9229959354
H   13.0889981230  15.3516599783  16.4374881990
H   11.8088427748  14.4111541164  16.9594487499
O   15.1558114486  12.2878499343  16.6019388165
H   15.0613356443  13.1638270715  16.2192708113
H   14.3787322794  11.7599187567  16.2109829256
O   12.8081177884  18.4757362022  15.7560480830
H   12.6540468232  18.0277002066  14.9030417510
H   12.3435067494  17.9214864504  16.4117091665
O   17.3015256198  14.2003936496  12.7586378388
H   17.0586042478  14.6310334592  11.9377918489
H   16.6152217531  14.1958902383  13.4436129997
O   12.0273036215  17.2726026817  13.2498941073
H   12.8336478288  16.8788584407  12.7915452942
H   11.4978350672  16.4670244813  13.5076748474
O   15.1042000054  16.1618404203  17.7610757833
H   15.2158864437  15.8177989437  16.8360691494
H   15.0883321432  15.3212029476  18.3358559691
Cl  15.0000000000  15.0000000000  15.0000000000
 25
 i =    19210, time =     9605.000, E =     -1117.0800709030                                        
O   15.5365758204  17.9332861173  13.9173236738
H   15.2299193870  17.3016392819  14.5954028982
H   16.0285502538  18.6140729611  14.4139060769
O   13.5068137819  16.2269035901  12.2258149124
H   14.2425039554  16.5299687530  11.6172079921
H   13.8822037653  16.0055285065  13.1148351584
O   11.8306252388  15.7447819426  16.3564814285
H   12.5955172836  15.4249935456  15.8364315974
H   11.1403185670  15.0563051631  16.3348850561
O   15.0881370147  12.3606388518  16.8286483279
H   14.8814899464  13.1276747948  16.2156846376
H   14.4168245557  11.6791958319  16.6838340984
O   17.9024365538  16.2308587010  15.6085175406
H   18.6062642023  15.6179159281  16.0297746461
H   17.1197504495  15.6864115066  15.4620825725
O   17.3677921104  14.3351645858  12.9441776828
H   16.8084103357  14.3987236574  12.1379547932
H   16.7646010488  14.2636571395  13.7028684070
O   13.8582961308  11.2937003829  13.4693376036
H   13.8914771804  12.0189092109  12.7916213187
H   14.8499902321  11.1475778344  13.4976691619
O   15.7682608250  16.3433036997  18.1699940210
H   15.6440876412  16.0348575019  17.2166096337
H   15.3509381067  15.5319058937  18.6884623198