 25
 i =     6000, time =     3000.000, E =     -1680.6775312508                                        
O   11.7735881255  12.9022291368  16.0194895236
H   11.2853310941  12.5838503685  16.8384663582
H   12.4995330220  12.2518924379  15.9009303771
O   14.6304667274  11.6914875940  15.6260552626
H   15.5930827796  11.3803222978  15.6955122062
H   14.1448428357  10.8299861670  15.3400203391
O   16.1833910642  13.7531206531  12.8302765398
H   16.9178906484  14.0609299010  12.1959250626
H   15.4658282477  13.2644990343  12.3289093338
O   16.1260961905  12.7055085786  17.7165190133
H   15.5607349769  11.9283203170  17.7481073099
H   16.0624834332  13.1359876207  18.6287421939
O   17.6409010824  15.9238907781  16.4746091106
H   18.2215410861  15.5623550759  15.8016088923
H   17.8533804151  16.8649457468  16.6136426939
O   13.4448301258  15.0941065673  17.5831118976
H   12.9632444887  14.3957856827  17.0683166718
H   12.7734995129  15.7789466344  17.7545500676
O   15.4505174718  17.5692205523  13.4156962736
H   14.5232925238  17.6208560682  13.1559716772
H   15.6465540911  18.4118829945  13.8261293033
O   12.3305893494  15.1732589439  13.7328307068
H   12.7768716022  15.6073298384  12.9551732828
H   11.8262698815  14.4478288495  13.2772517757
K  15.0000000000  15.0000000000  15.0000000000
 25
 i =     6470, time =     3235.000, E =     -1680.6633078540                                        
O   11.9927741868  12.5280592734  15.7551233160
H   11.5766273996  12.1893834591  16.6109312885
H   12.6258387053  11.8992363916  15.5057526330
O   14.9171493844  11.3840527846  15.4329209601
H   15.6355356399  11.4177198356  14.7666102512
H   14.7889019269  10.4233346833  15.5451229797
O   16.2926306949  13.8839552625  12.4925392359
H   17.1152635197  14.3250497459  12.2926803489
H   15.9737598745  13.5424840736  11.5920870563
O   15.9556635879  12.7606231067  17.3625282484
H   15.3714185348  12.1663586564  16.7658197372
H   15.6954843846  12.5578471972  18.3338999855
O   17.6557150941  15.7402336595  15.9349086154
H   18.3400031532  15.1409525764  15.5807768797
H   18.1162347951  16.5630629213  16.2231096632
O   12.7737839784  15.2100549352  16.8951348113
H   12.4065277792  14.4559731759  16.4679846375
H   11.9425272520  15.6997272541  17.1380494314
O   15.1163077295  17.6232216477  13.6997315011
H   14.0974555935  17.7585928271  13.5479229801
H   15.2930530761  18.2460666579  14.4251158382
O   12.6838741920  15.4184177073  13.1198574683
H   12.8079663057  15.8377976497  12.2105915989
H   12.0307981178  14.6420194035  12.9024005028
K  15.0000000000  15.0000000000  15.0000000000
 25
 i =     6940, time =     3470.000, E =     -1680.7082777715                                        
O   12.2395061132  12.7433008788  15.4462533067
H   11.5658653940  12.2118327115  16.0160653946
H   13.0612678232  12.2330747744  15.2554443434
O   14.8416398737  11.2677518626  14.8412070678
H   15.8204836438  11.4117362799  14.5957714927
H   14.8862497695  10.3730608219  15.3270662175
O   17.1933367250  13.6566668060  12.4044366062
H   17.4657745210  14.5186702504  12.0494641335
H   16.3418106487  13.5445802783  11.9330536114
O   15.8863860621  12.6937420484  17.2117549066
H   15.2363482111  12.2987764037  16.6391310044
H   15.4020429450  12.9583277099  18.0538138608
O   17.4335603436  16.1290063872  15.5536367073
H   18.2759287991  16.0095977141  15.0751793703
H   17.4314009656  17.1266980768  15.5552537439
O   12.9548132583  14.8019015826  17.2817423510
H   12.5416787552  14.1353728270  16.6916536010
H   12.1603526053  15.2488411428  17.6177439163
O   14.9180341434  17.6750142105  14.1324554236
H   14.0036279767  18.0269632105  13.8867779855
H   15.4435475465  18.5465193752  14.2212379305
O   13.1918223208  15.1341966821  12.9966565915
H   13.1724514673  15.8613358537  12.3699362366
H   12.3735699198  14.6640598747  12.8561423247
K  15.0000000000  15.0000000000  15.0000000000
 25
 i =     7410, time =     3705.000, E =     -1680.6942643020                                        
O   14.3158782979  11.1333384609  14.2487159894
H   15.1652066014  11.3922759020  13.8410258267
H   14.4920740067  10.2350502291  14.5978156581
O   16.0731311256  14.4267924855  12.1964188092
H   16.6757898515  14.7730595295  11.5096215188
H   15.2773711124  13.9909236518  11.7900708937
O   17.2749724662  16.3104469194  15.6869393297
H   17.8869899931  16.0674443026  14.9008008238
H   17.5504247601  17.2051640947  15.8692376872
O   12.6913327786  14.8149591813  17.1381952311
H   12.3666965726  13.9576675440  16.7854279694
H   11.8828970896  15.3761886217  17.2372646562
O   17.0434940263  12.2186542939  13.4709859336
H   17.5309906039  12.4594385545  14.3085457077
H   16.6910401932  13.0995865194  13.1362073194
O   15.0251139227  17.4048447807  13.8227067027
H   14.2489200010  17.9460508005  13.5332208930
H   15.5385507824  18.0887523890  14.3022497556
O   12.8755610641  15.3326070808  12.5548113836
H   12.8507970163  16.0449432575  11.9053320347
H   12.1434338972  14.6939576481  12.3042070894
O   17.6340693896  12.9162432647  16.4861473176
H   16.8915215152  12.8872030956  17.1229572577
H   18.3224175239  13.5520724219  16.7848494729
K  15.0000000000  15.0000000000  15.0000000000
 25
 i =     7880, time =     3940.000, E =     -1680.6420058850                                        
O   16.1204285659  14.5168150465  11.8293156222
H   16.6912054582  14.9398268513  11.1634692297
H   15.3717152822  14.2143444504  11.2520362349
O   16.7025386761  15.1419362489  18.4831361502
H   17.1903213063  15.1711509275  17.6125470275
H   17.3925603617  14.7427473893  19.1031755153
O   17.7172656065  15.8615447896  15.6185514307
H   18.1737790685  15.7254248534  14.7412519650
H   18.2276928679  16.5843438487  16.0385450108
O   12.6991072091  14.9692770065  16.7466127125
H   12.4885900554  14.1838592575  16.2404176186
H   11.8377412495  15.4753064262  16.8780342333
O   16.2728619860  12.4467388661  13.5022358591
H   16.8501354089  12.6876268014  14.2831654945
H   16.2711387532  13.1212325374  12.8250499409
O   15.7687826906  17.6786000112  14.1050900974
H   14.9989028230  18.3203646468  14.0522500280
H   16.3502019768  18.1626763222  14.7189576569
O   12.4702107737  15.4754870644  13.6216297717
H   12.7649964472  16.0256006020  12.8745549469
H   11.8294605210  14.9111571333  13.2558925193
O   17.2362407483  12.7190880834  16.0133952559
H   16.5304090384  12.3891424472  16.5845181592
H   17.8281016885  13.3642540867  16.5309091315
K  15.0000000000  15.0000000000  15.0000000000
 25
 i =     8350, time =     4175.000, E =     -1680.6701447574                                        
O   12.1237939211  13.4811811390  14.6123759582
H   12.0041449957  12.5204449128  14.8958411656
H   11.3219935097  13.8575311757  14.8532833169
O   16.0133996905  14.0552331635  12.1116907819
H   16.7668503126  14.2603306376  11.4790359515
H   15.3012474429  13.5626463474  11.6711707653
O   14.6232198995  12.2087772281  17.7596821830
H   14.1584484246  11.5754830347  17.1841585180
H   13.9111073505  12.6321603070  18.2746079862
O   17.8634460127  15.3201075994  15.5356758091
H   18.4516861141  15.5400834087  14.7741520139
H   17.6675816543  16.2959794183  15.8117238715
O   12.9189085324  15.6170196607  17.0491705858
H   12.2220743702  15.0113188463  16.6579743779
H   12.5054722076  16.5123745286  16.8601632879
O   16.1170133116  12.3978944177  14.1651072844
H   16.8527239346  12.5136780847  14.8404234841
H   16.3334535127  12.9586157561  13.3982881449
O   15.1392674125  17.7872243260  14.4260743137
H   14.2469591079  18.1354189765  14.0373921023
H   15.6468199839  18.6133596222  14.5804519301
O   12.6711921111  15.8198258386  13.2624589264
H   12.6896827369  16.3049627178  12.4171425106
H   12.3239671374  14.9682888584  12.8972810198
K  15.0000000000  15.0000000000  15.0000000000
 25
 i =     8820, time =     4410.000, E =     -1680.6792980699                                        
O   12.5376323576  13.4165763835  15.5057811828
H   12.8222704099  12.4813247357  15.4792714176
H   12.6346338663  13.6864808314  14.5443253028
O   16.1889195946  13.9849066355  12.3677045616
H   16.7589591089  14.2254723018  11.5913194121
H   15.4794632358  13.5229722124  11.9396594335
O   15.7238408613  13.4966274808  17.4361326479
H   15.4149940310  12.5768293666  17.0770561787
H   15.2616574410  13.5607907811  18.2949544347
O   17.4116941184  16.1362302749  15.4306434833
H   17.9401459114  16.2197575224  14.6110836019
H   17.8085578621  16.8580385070  16.0235719918
O   12.9280887215  15.4375885986  17.5525477606
H   12.6037575036  14.6360324925  17.1600461509
H   12.5933099407  16.2485405877  17.0657782893
O   16.8900536048  12.1977776629  14.6589729962
H   17.6060161795  12.2105679840  15.4243447430
H   16.9552272581  13.0549167393  14.2167473091
O   14.8218930566  17.4237026898  14.1656060661
H   14.0654600681  17.8604948181  13.6812715394
H   15.2264712074  18.1457074450  14.6525046230
O   12.9314344842  15.3210840645  13.2987571874
H   13.4102867559  15.6918712844  12.5594639511
H   12.2340707463  14.8927516226  12.7705509962
K  15.0000000000  15.0000000000  15.0000000000
 25
 i =     9290, time =     4645.000, E =     -1680.6739893689                                        
O   16.4423019244  14.3451259217  12.5739681501
H   16.9959412971  15.0552490551  12.1275355153
H   15.5747171010  14.3183871174  12.1009489900
O   15.3791560022  12.5561149467  17.0903854217
H   15.3315737359  11.6236551441  16.7053771179
H   15.3801797404  12.4938211553  18.0690461520
O   17.8287709661  15.8478943242  16.1796154365
H   18.3751260663  15.3909584233  15.5449587552
H   17.9796000219  16.7974126058  15.9372712360
O   12.9497531147  15.5086405572  17.1985571895
H   12.5068837844  14.5982594700  17.2305760893
H   12.2410753706  16.1155721559  16.8179037063
O   16.7264849722  11.8312378491  13.5384755318
H   17.2629525813  12.0042552293  14.3274539199
H   16.7869393618  12.6630916352  13.0637686517
O   15.0873561317  17.2963834265  13.2521941773
H   14.2809294952  17.8428310081  13.2405178230
H   15.7059987781  18.0652211378  13.5418555805
O   12.4893195848  15.8719244815  12.9357278124
H   12.7053739108  16.2628425720  12.0406616127
H   12.1768812370  14.9396232983  12.8377055890
O   12.6694610522  12.4199784455  13.8798520863
H   11.8883257869  11.9682582523  13.4892009033
H   13.2374032168  11.6730826406  14.2309941306
K  15.0000000000  15.0000000000  15.0000000000
 25
 i =     9760, time =     4880.000, E =     -1680.6603476747                                        
O   16.2704105188  14.9992256718  12.2177575911
H   17.0124380475  15.1508060817  11.5635074563
H   15.5282059803  14.6138471287  11.7363365342
O   15.9422256389  12.5385854577  16.6724565721
H   15.4652725241  11.8279178020  16.1610374320
H   15.3043960689  12.8983507416  17.3505198081
O   17.7185448883  15.7772148868  16.1903785830
H   18.3025242387  15.0468543649  15.9306104586
H   18.3556650796  16.5022362337  15.8359451690
O   13.3120629967  15.9849558236  17.3458932642
H   12.8899915896  15.0824204499  17.2765787991
H   12.8534018729  16.4762425305  16.6493066889
O   16.8292420699  12.5292959524  13.7253162386
H   17.4896305069  12.9082994311  14.3780519929
H   16.7043262553  13.2274758572  13.0606069778
O   14.9654814205  17.7528964535  13.5699079775
H   14.2028418631  18.1727166619  13.0424121339
H   15.1942372701  18.4940129519  14.1290234258
O   12.8889343777  15.3213700197  13.3369104665
H   13.3090468258  15.8093377082  12.5324077481
H   12.1326431452  14.8937136429  12.8836337117
O   13.3932333768  12.3608032010  14.0857253213
H   12.6351785688  12.2871689479  13.5003369924
H   13.7178099229  11.4376792773  14.2685368990
K  15.0000000000  15.0000000000  15.0000000000
 25
 i =    10230, time =     5115.000, E =     -1680.6054681876                                        
O   15.9063431767  11.9521171266  14.5622774403
H   16.7207740726  12.3811402405  14.1120918552
H   16.0542122456  10.9971768631  14.7825805450
O   16.4538865662  15.0526249745  12.1898789668
H   17.2920535476  15.1463414073  11.7025537057
H   15.9031904491  14.4842279903  11.6580139997
O   16.8608399350  12.8135288119  17.0806707857
H   16.6355516020  12.1862764953  16.3601684181
H   16.1786474280  12.5035325833  17.7333032980
O   17.5475513823  15.4788726042  15.7004356860
H   18.2854352412  14.8031794984  15.6267312074
H   18.0169470774  16.3727732992  15.6431753984
O   12.7433397184  15.5814268605  17.4814546359
H   11.9547090057  14.9742377811  17.4444495877
H   12.3765899332  16.4087121788  17.1711083419
O   15.0809233076  17.8000886907  14.2316508106
H   14.6032810243  18.2608574552  13.4996389616
H   15.7583574193  18.4551032381  14.6094729525
O   12.6896892144  16.4368634559  13.5914318422
H   12.6089558935  17.3285784850  13.1107835485
H   12.1898979381  15.9140595633  12.9524367033
O   13.3755970739  12.1469427467  13.4767773375
H   13.0192033231  11.4615878433  14.0646056486
H   14.3006939230  12.0328633679  13.6106864273
K  15.0000000000  15.0000000000  15.0000000000
 25
 i =    10700, time =     5350.000, E =     -1680.6258569998                                        
O   13.0542519228  12.6923180768  16.1978392266
H   12.9109262845  11.9084077108  16.7141249003
H   12.9004360621  12.3311965929  15.2904879341
O   15.9900366523  12.0124282985  15.0621708506
H   16.6400232334  12.4435226319  14.5085545548
H   16.2144338963  11.0758793656  15.4733211460
O   16.2476555344  15.2664854707  12.2776392995
H   17.0942267371  15.5382641146  11.8752662833
H   15.7277297939  14.8876938607  11.5366358104
O   17.0436409497  13.5031595489  17.3178457332
H   16.7515121616  12.7883776087  16.6798890784
H   17.3114859549  13.1021097726  18.1445923741
O   17.3967114807  15.9059926267  15.8897063628
H   17.9385636402  15.1333908975  16.0767407801
H   18.1800707886  16.4901982751  15.6332329777
O   12.5029033714  16.0703384734  16.9050760908
H   12.0172854058  15.4951650520  16.2931882246
H   12.4904950958  17.0184032495  16.4444073785
O   15.8944382251  18.2109396298  14.5206619443
H   15.2890827155  18.9992736367  14.7364754928
H   16.6766392581  18.5462769923  15.0548521008
O   13.2048388029  15.9682539236  13.0366492512
H   13.2365112852  16.8748330587  12.6997276909
H   12.5379795809  15.3322157888  12.6781474863
K  15.0000000000  15.0000000000  15.0000000000
 25
 i =    11170, time =     5585.000, E =     -1680.6572913856                                        
O   13.1081582507  12.5722012043  15.7240500649
H   13.0875834815  12.8629058164  16.6689971671
H   13.9963971978  12.2234310636  15.5791594650
O   15.9470381318  12.1354462199  15.3237234198
H   16.7903541544  12.5383507063  14.8815221981
H   15.9224910015  11.1742827815  15.6655156687
O   16.4996733776  14.9964825909  12.4215421413
H   17.1637249290  15.6661427258  12.1406958980
H   15.8930738711  14.7505978357  11.6990129995
O   15.7785577455  14.1151132167  17.6557329694
H   16.1125616033  13.2279100467  17.4289942626
H   16.2923854800  14.2899449153  18.4691077038
O   17.4089921251  16.4138091774  16.5021683850
H   17.7692324742  15.5445790729  16.7874755440
H   17.9719063332  16.7225057586  15.7650434958
O   12.3145949523  16.1407730869  16.5957245943
H   11.8035021580  15.5528290695  15.9747659107
H   12.9095230075  16.7266157986  16.0368415198
O   15.6343097771  18.1816431818  14.7791428811
H   15.0611596266  18.9525143816  14.8825113288
H   16.3891196852  18.3546212985  15.3832109948
O   13.0757405524  15.5250447548  13.1550554811
H   13.2840382054  16.2428453994  12.5422481219
H   12.7940330719  14.8093280423  12.5458646689
K  15.0000000000  15.0000000000  15.0000000000
 25
 i =    11640, time =     5820.000, E =     -1680.6023629698                                        
O   13.3475325080  12.6936473769  16.0105052164
H   13.3961944657  12.7889298094  16.9818040422
H   14.2531766269  12.3517816428  15.6956737408
O   16.0723480430  11.5731957548  15.1468215191
H   16.8944473755  12.0456238731  14.8753373933
H   16.1902469174  10.5653142605  15.3383275934
O   16.6210068953  14.7627937111  12.6506530036
H   16.7325331954  15.7403654757  12.7045431436
H   16.0762640001  14.5565747076  11.8691611856
O   16.3056714633  14.0023849130  17.4970646309
H   16.1363640955  13.0496566633  17.5851028056
H   16.7817397346  14.1677075586  18.3567204362
O   18.0354529602  15.6762819392  15.5485946507
H   17.9334848376  15.2457417465  16.3818739485
H   18.9983962735  15.7824613270  15.3162466345
O   13.3790349089  16.5458565659  16.6902014605
H   12.6297066180  16.3016387879  17.3260969586
H   13.0587936079  17.3863476626  16.2698804295
O   15.8910152397  18.4716998069  14.6829140355
H   15.2529225270  19.0971925508  15.1429287310
H   16.5552701574  18.2346036940  15.3731424945
O   13.1485317182  15.1420170981  13.2246571878
H   13.0490126523  16.0788637937  12.8570579542
H   12.6844325497  14.6183558400  12.4910766297
K  15.0000000000  15.0000000000  15.0000000000
 25
 i =    12110, time =     6055.000, E =     -1680.5742074167                                        
O   13.3041922104  12.7107680865  17.0971394751
H   12.9231604486  12.7999319545  17.9648583274
H   14.1985101564  12.3421794952  17.2437924557
O   16.8497545852  14.8047100673  11.9807235002
H   16.9258607029  15.6871965142  11.5814497020
H   16.0257222721  14.4570875893  11.4809093541
O   16.5996677406  13.4731803210  17.3117179776
H   16.4932112438  12.6229435205  16.8708204931
H   16.9638080089  13.2947066612  18.2473592797
O   18.0392251337  15.9211870095  15.5954417168
H   18.1704635885  14.9105283260  15.7269227766
H   18.6546723057  16.1091560505  14.8849654174
O   13.1073829267  15.5244561880  16.8323970401
H   12.3643486439  14.8210736832  16.8248741271
H   12.6574636749  16.3388825136  16.5980045604
O   15.5168748962  17.8991194510  15.0463597883
H   14.7941332639  18.5392409613  15.4006917897
H   16.3130701275  18.1610339053  15.6326156362
O   13.2150562331  15.3890419691  13.1625179520
H   13.2090754726  16.3421415810  12.7856022677
H   12.8016493352  14.8311302054  12.4750710805
O   13.8310680525  11.9922569279  13.3866763450
H   13.7509316841  11.3296834139  12.6489667109
H   14.5157542872  11.7137146516  14.0295208122
K  15.0000000000  15.0000000000  15.0000000000
 25
 i =    12580, time =     6290.000, E =     -1680.5934820923                                        
O   13.2418043475  12.9397613780  17.0154037761
H   12.8394873460  13.2175292720  17.8598663139
H   13.8355044984  12.2270889892  17.2355030464
O   15.8553487193  11.7174130494  15.4463504652
H   16.5182349105  12.0816496693  14.7941168294
H   16.1770109546  10.7658133411  15.6879259523
O   17.6266614527  15.5314642473  13.3990577752
H   18.3782074508  15.9801614782  13.8021834074
H   17.1556772817  16.2470757049  12.8107839296
O   16.3202252798  13.8882603194  17.3875961125
H   16.1721944431  13.0439997805  16.8804891738
H   16.8934522520  13.5297121139  18.1524279596
O   12.8537580409  15.9485184191  16.7111902458
H   12.3950818536  15.3554174316  16.0691149906
H   12.3643438840  16.8180780545  16.6985742311
O   17.6414910591  12.7333745424  13.6597180666
H   18.5430261382  12.8048568159  14.0475124275
H   17.3738546409  13.6566125387  13.4743051910
O   15.2349783616  18.1106010798  14.8754699267
H   14.3414358804  18.4245229487  14.7081083121
H   15.6747559116  18.6763653634  15.5344396036
O   13.0485778752  15.7793458855  13.3417974176
H   13.0203519161  16.7252536466  13.1386075852
H   12.8287878075  15.2380111571  12.4607801855
K  15.0000000000  15.0000000000  15.0000000000
 25
 i =    13050, time =     6525.000, E =     -1680.6023505498                                        
O   13.0693592126  12.7756464146  16.3034426788
H   12.4907380813  12.9749307495  17.1037705235
H   13.2961540164  11.8637870070  16.5385242590
O   16.1565559776  12.0215089696  15.3241800048
H   16.9699877447  12.2606361925  14.8634429851
H   16.1641322347  10.9769278362  15.4357462701
O   16.2308169183  16.4039733474  17.4580490485
H   17.0773937735  16.7866504035  17.0661131044
H   16.5377125227  15.4074713438  17.4955510424
O   16.6891154954  13.7039116829  17.6218739723
H   16.1013254259  13.0886262123  17.1749835226
H   16.8170720788  13.3413908073  18.5417664862
O   12.6754436452  15.9411400061  16.6735583543
H   12.2951365557  15.0477790152  16.8270762489
H   11.9198886898  16.4890688207  16.9705259819
O   15.3919229275  14.1245865177  12.4693144119
H   14.8374765378  13.3355291667  12.5211711720
H   15.1407051404  14.4876411019  11.6480189036
O   15.1914539696  18.2297858591  14.9793911737
H   14.3587846000  18.5306460011  15.5296676417
H   15.9445679496  18.3962732919  15.6060981516
O   12.8584158857  16.3758456894  13.2910593805
H   12.8465271506  17.2909576614  12.8852443486
H   13.2944591450  15.9116442648  12.4491570385
K  15.0000000000  15.0000000000  15.0000000000
 25
 i =    13520, time =     6760.000, E =     -1680.6180496769                                        
O   13.8542912239  12.7878250178  16.1387600952
H   13.4513730500  12.6717544510  17.0096898448
H   14.6532971013  12.2398195000  16.1025365487
O   16.2120318014  11.6745345503  15.1783078799
H   17.2068096499  11.7882674407  15.0958064461
H   16.0971027804  10.6624609413  15.2688184156
O   16.4158190911  16.3673490908  17.9068069296
H   16.7963578100  17.1771771818  17.4068648468
H   17.0820137857  15.6512014147  17.8237446289
O   12.8920104917  16.4218590588  16.8161469339
H   12.7897620113  15.9513275991  17.6889442679
H   12.2204627281  17.1083209949  16.9455326419
O   17.9485151665  13.3211518981  13.9560367779
H   18.8921872365  13.5968653807  14.0165973150
H   17.4647524651  14.0786858504  13.5433392468
O   15.9592400000  14.2588470897  11.8117671044
H   15.6205384263  13.3357864816  12.0615639341
H   15.2888136725  14.7282938255  11.3508865680
O   14.9441514201  18.0630532658  14.7650714953
H   14.2785298416  18.5984663565  15.2410950533
H   15.6968228926  18.1560279378  15.3709647713
O   13.2844557618  16.2701527128  12.6903512349
H   13.1954549083  17.2893455623  12.7373502733
H   13.4587868221  16.0423673702  11.7012603990
K  15.0000000000  15.0000000000  15.0000000000
 25
 i =    13990, time =     6995.000, E =     -1680.6482311667                                        
O   13.5626127226  12.7450783610  16.1143199241
H   13.4483656639  12.7496817208  17.0683113262
H   14.4058111226  12.2429717775  15.9565184019
O   16.8404825445  16.0059519705  17.3267698467
H   17.2281246277  16.8561300341  17.1959251812
H   17.5703889085  15.3537454341  17.4253171230
O   12.6258711072  15.7591200083  16.5406362283
H   12.0799027351  15.0728961623  17.0305001505
H   12.5552371612  16.6178677394  17.0229542795
O   18.3537466883  13.4811879900  14.7859003522
H   19.2851552953  13.3174168113  14.6053205102
H   17.8978814478  13.3813731516  13.9403831434
O   16.7131910125  13.6116119720  12.2678761330
H   15.9492172958  13.0312363605  12.5570836632
H   16.2108809136  14.2589264503  11.6747791592
O   15.2837806615  17.8619030532  14.9971077353
H   14.4795964329  18.4109914940  15.2486779036
H   16.0556001742  18.1454470344  15.4777849866
O   13.2648756076  15.8012580165  13.0663934443
H   13.0390376063  16.7106491548  12.8346482607
H   13.5660117561  15.4244570080  12.2487656678
O   14.4435040420  11.8660064072  13.1300078372
H   14.4859909353  11.3383046419  12.2664824388
H   14.8399892934  11.2626677778  13.8298316416
K  15.0000000000  15.0000000000  15.0000000000
 25
 i =    14460, time =     7230.000, E =     -1680.5774750074                                        
O   14.0762217250  12.0157006767  16.4009649204
H   13.9205013195  12.0603640778  17.4028388640
H   14.9685124717  11.6318728057  16.2711463744
O   16.6722184137  15.9062885999  17.4114544637
H   16.7630471096  16.8408653524  17.0473503373
H   17.5861721383  15.4502491475  17.3704527665
O   18.3883306886  16.2621975858  14.8742622241
H   18.7634132331  15.3823428433  14.8528913901
H   19.1826005146  16.7818909848  14.6178025336
O   12.8660559906  15.4086289597  16.8142213708
H   12.0253766247  14.8401215246  16.9011091525
H   12.6578755534  16.2170980028  17.2846595514
O   17.3048265099  13.8628988275  13.0662109110
H   16.4854436271  13.2355951669  13.1427444567
H   17.1183030108  14.4626148829  12.3303637424
O   14.1799210141  17.9382539247  15.3544397702
H   13.4429708727  18.6347710157  15.6030178065
H   14.9938473881  18.3121752253  15.7039900517
O   12.9863088071  15.1231961428  12.5932873440
H   12.7611937047  15.9948250778  12.2211882871
H   13.3786853831  14.6756119125  11.8316648620
O   15.1445233604  12.2875674036  13.3744447825
H   14.8136664133  11.9294265573  12.5202005392
H   15.5848011793  11.4797554535  13.7787140588
K  15.0000000000  15.0000000000  15.0000000000
 25
 i =    14930, time =     7465.000, E =     -1680.6449688436                                        
O   14.3062371100  12.3294298669  16.3265698142
H   13.9649466295  12.5309907812  17.2044986188
H   15.0884461579  11.7439099420  16.4035044447
O   16.4061176052  16.1584699464  17.5627964222
H   16.5038680890  17.0541990179  17.8861559749
H   17.3241834733  15.9611658805  17.5156478450
O   17.7645287810  16.7616615415  14.6831376398
H   17.6873920302  17.6638915628  15.0716066488
H   18.7490045418  16.6597553788  14.7755068533
O   12.9030519132  15.2850142683  16.8115371191
H   12.1082790295  14.7235719720  16.7676227043
H   12.5543530366  16.2048994750  16.9578776885
O   17.4059124039  14.1225812716  12.4713268023
H   16.5264738701  13.6944376424  12.3464684871
H   17.2288682359  15.0836932228  12.2757738845
O   14.4942047850  18.2910637325  14.6568439223
H   13.7647773811  18.8248919521  14.9940275859
H   15.3044579445  18.7953526541  15.0083483733
O   13.3634218655  15.0903975891  11.8714374829
H   13.3627150276  16.0996935530  11.6558407512
H   13.9376971956  14.6776312660  11.1456074370
O   15.8601108013  11.9336656558  12.8943683764
H   15.4359831173  11.4991796933  12.1163470689
H   16.7088369209  11.3610700082  13.0448279069
K  15.0000000000  15.0000000000  15.0000000000
 25
 i =    15400, time =     7700.000, E =     -1680.6226625979                                        
O   14.8821939495  12.7155921712  16.6449818498
H   14.4822438964  12.5937988619  17.5211531997
H   15.7870681223  12.2730417122  16.6751933053
O   15.9590478520  16.5698029848  17.6995189250
H   15.6539534296  17.4717664625  17.5120183566
H   16.9391006545  16.5643842595  17.4229045490
O   17.4425129079  16.4379578320  14.7127997130
H   17.5714260517  17.2124979129  15.2871049423
H   18.3187945672  15.9863520460  14.6757389878
O   12.5080054555  16.4621928669  16.7557476827
H   11.7530145535  15.8431641292  17.0451236907
H   12.0533933207  17.3514799478  16.7899230466
O   11.5914816901  14.7541942194  13.6145419767
H   11.1582289196  15.5438420117  14.1045132187
H   12.4679227384  15.0597770097  13.2029843378
O   14.9642434920  18.1874201941  14.4454250025
H   14.4646074962  18.9480597271  14.7922927526
H   15.8823172565  18.4851860262  14.7438223959
O   13.8752926626  15.4172914835  12.5427804872
H   13.4839634891  16.1753000267  12.0536183606
H   14.2235382828  14.8872529295  11.8442141975
O   15.3537008095  12.2870216111  12.9912332907
H   14.9143100317  12.0986891694  12.1314198139
H   15.2361538721  11.4497045291  13.5212295291
K  15.0000000000  15.0000000000  15.0000000000
 25
 i =    15870, time =     7935.000, E =     -1680.6226903138                                        
O   14.4636672110  12.5669172391  16.6528953052
H   14.0533029558  12.8255336482  17.4702425060
H   15.4076121390  12.4607901479  16.8119280173
O   15.7974957652  16.3636903144  17.3752465546
H   15.4055194495  17.2575505688  17.4357539951
H   16.7305805072  16.4661915996  17.2228781446
O   17.3803152619  16.8225176514  14.1730215199
H   17.0412528622  17.7142111554  14.4653853230
H   18.2684249790  16.8618184349  14.5411092883
O   12.8373333528  16.0554007527  17.1385544132
H   12.5015194554  15.1679478049  17.4088298673
H   12.0459912257  16.3592124360  16.6650473412
O   11.9395577038  14.4950339883  13.5419493962
H   11.5013498858  15.1846450462  14.1273464440
H   12.7513612336  14.9531746961  13.1831211403
O   14.1755785928  17.7653060867  14.3015267487
H   13.4266540635  18.2740102347  14.6663765196
H   14.7867126642  17.9810074648  15.0374085858
O   13.9474703866  15.6794433481  12.0213883018
H   13.2259716281  16.1753755817  11.5461632171
H   14.1354953626  15.0090555263  11.3443555088
O   15.5939010282  12.3094550381  13.3492289225
H   15.2161280359  11.5559954590  12.8087365536
H   16.0081168036  11.8680399445  14.1406849203
K  15.0000000000  15.0000000000  15.0000000000
 25
 i =    16340, time =     8170.000, E =     -1680.6050949215                                        
O   14.8762683746  12.4545434104  16.8212394984
H   14.1284917232  12.4265215629  17.4372075911
H   15.6138746698  12.0957692911  17.3100742421
O   17.4569063323  12.7485174889  15.7664640551
H   18.2849452710  12.9472114312  15.2351600706
H   17.1808055878  11.7736387662  15.6188505933
O   16.6449871657  14.8178738957  17.5773041339
H   17.5653725154  15.2424331674  17.6829827475
H   16.9165869854  14.0155536677  17.0341076629
O   12.5195156123  15.6061915475  16.4364797524
H   11.8838336821  15.1246179631  16.9894724139
H   11.9476442183  15.9657577712  15.7327518601
O   12.5109216878  14.0405112130  13.2069654113
H   12.0972304103  14.7418138157  13.7667764198
H   13.2251613406  14.4734117756  12.7199291080
O   14.5135076065  17.7883283684  14.6130395804
H   13.8247078656  18.4689259148  14.8121716965
H   15.2685193820  18.1744257198  15.1132760683
O   14.5285678384  15.0869167700  11.9083511903
H   13.9649139737  15.8520938481  11.6044549905
H   14.4664664503  14.4440584519  11.1449988275
O   15.5655591953  12.8612337907  13.4339480559
H   15.0140795956  12.1613371979  13.0507724192
H   16.3225575945  12.4341109836  13.9537466195
K  15.0000000000  15.0000000000  15.0000000000
 25