 27
 i =     6000, time =     3000.000, E =     -1680.6775312508                                        
O   13.9710323498  14.2620344313  18.3672284041
H   13.3156535211  13.5648642394  18.5971040637
H   14.6760586184  14.1938428540  19.0082143985
O   17.2128229049  16.7917504013  13.2143820894
H   16.2142035312  16.7729014330  13.2350103651
H   17.5447039907  16.0121310333  13.7539222245
O   14.7913986029  14.4958376216  11.8572530453
H   14.5290054257  14.7722477568  12.7434175898
H   14.9127822275  15.3541731671  11.3318977511
O   16.6506961441  16.2053949961  17.4874896775
H   17.1022527082  15.8764588099  18.2567103870
H   15.8592044817  16.6706717479  17.8134566799
O   13.5709698298  17.4687112620  14.4921680443
H   13.9135181532  18.3274069425  14.0885488907
H   12.8324982107  17.2565795754  13.7735910192
O   12.1514106049  13.5650782921  14.5485970865
H   11.7174702586  13.4128681428  15.3635021971
H   12.3855050427  12.6308694895  14.3212159340
O   17.1289975704  13.5648120775  16.6535970423
H   16.6013787685  12.8629765628  16.1941519825
H   16.5591809465  14.3305598433  16.8390606290
O   15.7923830029  11.4124506053  15.0847133652
H   15.3836920590  11.5349118237  14.1848345299
H   15.0273194457  11.3493633675  15.7049688856
O   15.0000000000  15.0000000000  15.0000000000
H   14.6745622917  15.9237584735  14.8459845840
H   14.1346517633  14.5550620958  15.1911309486
 27
 i =     6470, time =     3235.000, E =     -1680.6633078540                                        
O   13.6006612964  13.8063841636  17.4147380931
H   12.9786088437  13.0454827995  17.3802973641
H   14.4008871675  13.3753144365  17.8629680114
O   17.4292177577  16.5672115525  13.6392335579
H   16.5271149543  16.5805076090  14.0127285250
H   17.7893075980  15.7239942288  14.0331580753
O   15.2975322666  14.0758682908  12.2207450299
H   15.2382041085  14.2044352632  13.1978884917
H   15.8357154244  14.8430079907  11.9407177900
O   12.7433258247  17.8157839973  16.1702101448
H   13.5709252183  17.8618234697  16.7635890083
H   13.1345811398  17.7183085262  15.3055266060
O   17.4351941892  16.0817217356  17.4810602376
H   17.6455348938  15.6673410876  18.3042837305
H   16.4760920710  16.4041908203  17.5739402314
O   13.5819614278  17.4385675840  13.6997174216
H   13.9188015612  18.3003420525  13.4052941964
H   12.8847240558  17.0260656258  13.1198366439
O   18.0598511423  13.6450105915  16.2766254664
H   17.4164242428  12.9864002099  15.8983146579
H   17.5808920373  14.4603728406  16.4947083680
O   14.9236084096  17.5572043803  17.9046563847
H   14.6445140230  17.5591441485  18.8740895312
H   15.5808600800  18.3158945185  17.9189148934
O   15.0000000000  15.0000000000  15.0000000000
H   14.3927182155  15.6129184661  14.5373312026
H   14.4782461692  14.5508253059  15.6999068342
 27
 i =     6940, time =     3470.000, E =     -1680.7082777715                                        
O   13.7177123433  14.0536411927  17.3139342187
H   13.0766968888  13.5072310896  16.8030880527
H   13.9872036496  13.3941157833  18.0260182612
O   17.3885326465  16.2972643339  14.1757381856
H   16.5403996278  15.8831157094  14.3836068610
H   18.0418689383  15.6010905405  14.2885326151
O   14.2560297277  14.2746576541  12.2747815676
H   14.3882824701  14.5597021912  13.2064869830
H   14.5378613434  15.0537264278  11.7027014681
O   16.3813539891  15.1369206924  17.9664431236
H   16.3660748858  15.5104824732  18.8816835145
H   15.6532616946  15.6308613283  17.5375232430
O   12.6685471741  16.9600549101  14.4402032986
H   12.9550118618  17.8159363373  14.1697826825
H   11.9218232400  16.8689828647  13.8407527876
O   11.8476911308  13.9423244401  14.5670807689
H   11.1273938080  13.9981076123  15.2766549083
H   11.9133734067  12.9693472287  14.3254738768
O   17.1426824736  12.4787150374  16.2915428970
H   16.4676987065  12.0495785651  15.6947357704
H   16.6983534412  13.3339958514  16.5388977564
O   15.6481549768  16.5034896613  11.3663677877
H   16.0604202139  16.2785071459  10.5015997433
H   15.1992520775  17.3565404646  11.2521963323
O   15.0000000000  15.0000000000  15.0000000000
H   14.3024186061  15.6864212956  14.8853988168
H   14.6680499042  14.5546997513  15.7836770718
 27
 i =     7410, time =     3705.000, E =     -1680.6942643020                                        
O   13.4234890526  13.8817736143  17.4946291959
H   12.7247729193  13.6109536936  16.8116911959
H   13.7847684234  13.0628813973  17.8920372836
O   11.1111999330  14.6604996814  13.8666284407
H   11.6844511486  14.6586381219  13.0740234717
H   11.5223990000  13.9908260144  14.4374656231
O   17.5633782532  15.8637530042  14.4511203455
H   16.6169207814  15.8156451641  14.6776984018
H   17.8204750567  14.9522675805  14.6102974831
O   14.2069538994  13.3410204506  12.5917821248
H   14.3948284391  14.0057218496  13.3219021907
H   14.5811451625  13.7962051749  11.8015224223
O   16.4553982753  14.5696388432  18.5234066534
H   16.5874155841  14.3422417837  19.4710336864
H   15.7354585874  15.1738200281  18.4870115571
O   13.0803880159  16.9725791500  15.2864862344
H   13.1517681468  17.7782634547  14.7531864588
H   12.3489367661  16.4267467716  14.9885218720
O   17.3783315090  12.6225413080  16.8988467870
H   16.7797600819  11.9903185905  16.4387260469
H   17.0152492622  13.4016770577  17.3844237672
O   14.8599641416  16.3398070634  12.0914993304
H   15.3967588490  16.1546217024  11.3372301866
H   15.2692980506  17.2190633379  12.3006724221
O   15.0000000000  15.0000000000  15.0000000000
H   14.3613072142  15.8039444329  15.0135387346
H   14.7387808310  14.6066946108  15.8725023836
 27
 i =     7880, time =     3940.000, E =     -1680.6420058850                                        
O   18.6827985197  14.2419598839  15.6739945711
H   18.9807040574  13.5474643234  15.0334955916
H   18.1884385263  13.7726483716  16.3970602986
O   13.6370176281  14.1321564110  17.9720293399
H   13.0423418122  13.7036841926  17.2900213292
H   14.2129998076  13.4218682652  18.2824087381
O   17.7916547424  16.2553861842  14.1983405814
H   16.8611205355  16.2433416824  14.4603720035
H   18.1891601791  15.4388249077  14.6846635822
O   13.5981199638  13.5340347318  12.8779006731
H   13.7914295254  14.2476352000  13.5559147648
H   13.7789956522  14.0692756583  12.0985808198
O   16.6707371252  15.5349527195  18.6928489469
H   16.9311748159  15.3930438686  19.6452452006
H   15.9391094629  16.1378598999  18.6156678051
O   14.0131442643  17.6220035273  15.1991232692
H   14.5636852678  18.4183552905  14.9473973124
H   13.1869196829  17.8558202343  14.8416947391
O   12.0338830091  12.9020762548  15.9373324460
H   11.3746608395  12.9307910091  16.6920593206
H   12.1747962610  11.9082529747  15.7843870162
O   15.7395449661  16.8387144528  11.5297775588
H   15.9816980814  16.5620401446  10.6379211141
H   16.1368199449  17.7703246717  11.6622100552
O   15.0000000000  15.0000000000  15.0000000000
H   14.5756933987  15.9150011081  15.0108785071
H   14.7467735249  14.6436154460  15.9044724880
 27
 i =     8350, time =     4175.000, E =     -1680.6701447574                                        
O   18.3180390153  14.9583078523  15.2356556884
H   18.4104517363  14.0731755062  14.7770040357
H   17.4767004739  14.8695039662  15.7700221474
O   13.3663358028  13.6926192375  17.4365950490
H   12.7538760368  13.3173318784  16.7434996759
H   13.8892226676  12.8875935887  17.7608486710
O   17.8921248354  16.4757477143  13.0702341450
H   17.0201681255  16.5804775137  12.6387436805
H   17.9035751902  15.7057304731  13.7355466749
O   14.5807502542  13.6436716062  12.6036042569
H   14.4345015457  14.1133270761  13.4515942469
H   13.9121153331  13.9291215532  11.9804872206
O   16.7104572115  15.3416887851  18.3744424701
H   16.7211160184  15.0330889579  19.3215267881
H   15.8019979424  15.7483669399  18.2596591918
O   13.2085721839  17.1428469514  14.4375585753
H   13.7332439210  17.9660394819  14.1731326353
H   12.6336998386  16.8111728668  13.7143747572
O   17.1243141468  12.9433841114  16.9461805537
H   16.4155866537  12.5455752765  16.3496759430
H   16.9110264708  13.8324908725  17.2318856848
O   15.2815140396  11.4310778571  15.4168974865
H   15.3193874267  11.2073130984  14.4323080316
H   14.4214640027  11.7603641679  15.6344659066
O   15.0000000000  15.0000000000  15.0000000000
H   14.9476247091  15.9778599939  14.8833020526
H   14.5371056947  14.8107994126  15.8464707666
 27
 i =     8820, time =     4410.000, E =     -1680.6792980699                                        
O   17.4676543402  15.3489026581  13.9942147740
H   17.7688955208  14.4864671795  13.6407608979
H   16.7618049594  15.1433185549  14.6491942612
O   12.9363493191  14.0273677051  16.9919788005
H   12.5560726566  13.9477396769  16.1327002760
H   13.1394328471  13.0934729927  17.2941723420
O   15.7903070795  15.1102153709  11.4666801100
H   16.2985579023  15.1850422135  12.3356109325
H   15.5319852224  16.0467899773  11.3006347510
O   12.3208114344  17.5969345362  16.1098467679
H   13.0490075485  17.5059955516  16.7380445539
H   12.6191717627  17.1355907121  15.2922168513
O   16.8085441303  15.7905588371  17.7049717083
H   17.2160733378  15.6304417324  18.5883437752
H   15.9422058204  16.2409941847  17.9389869772
O   13.3092191594  16.5162546694  13.6971147271
H   13.5057087810  17.4554721776  13.3430836364
H   12.7637080306  16.2514319199  12.9169529306
O   16.6094351524  12.9884067401  16.7757758281
H   16.1924104563  13.2278128804  15.9303734089
H   16.5603921733  13.8289387617  17.2258871993
O   14.4694227774  11.5069295617  14.5487156134
H   14.0111101528  12.0671278179  13.9216530395
H   13.7350710449  11.1831732530  15.0732181854
O   15.0000000000  15.0000000000  15.0000000000
H   14.5440754508  15.5844359191  14.3187827849
H   14.5085674096  14.9843379571  15.7751879681
 27
 i =     9290, time =     4645.000, E =     -1680.6739893689                                        
O   17.4664187260  14.4439976858  14.0828597357
H   17.3515139970  13.5926007202  13.5339506448
H   16.6348012621  14.6482407934  14.6654540390
O   13.1982615450  13.5940215222  17.3913040881
H   12.7509866914  13.2672157479  16.5609261790
H   13.8837837110  12.8764496455  17.6870554012
O   18.0834729835  15.9894017959  16.6116782197
H   18.2049564248  16.2223578001  15.6727693018
H   17.2504771155  15.4624724962  16.6820766047
O   15.3457511901  14.7608489763  11.7745685230
H   15.8395251925  15.0157892266  12.6145599298
H   15.0213316344  15.5850588027  11.3519525365
O   16.0701990877  14.8631550543  17.9293549952
H   16.4270107428  15.0649775230  18.8236688451
H   15.1750996032  15.2141546081  17.9692386188
O   12.9295221323  16.5899235950  14.2105035938
H   13.0635388942  17.4474611041  13.7132129179
H   12.2077711670  16.0012765023  13.8275932616
O   14.2386976680  12.3919406090  12.7289582332
H   15.2162374043  12.3437122889  12.5949223329
H   13.9490370073  13.2832015323  12.5724285838
O   16.8543583417  12.3642581361  16.1586206331
H   16.1091654824  11.8830995916  15.7163654806
H   16.6824051392  13.2384814928  16.5861773996
O   15.0000000000  15.0000000000  15.0000000000
H   14.3649445855  15.7158627039  14.7818931747
H   14.5068076625  14.3901750073  15.5439902638
 27
 i =     9760, time =     4880.000, E =     -1680.6603476747                                        
O   17.2279148105  13.9274604376  13.9655438132
H   16.9007627826  13.2919710386  13.3303873548
H   16.5440127437  14.0071041403  14.6002924483
O   13.3310474804  13.2550202380  16.7867461484
H   13.0344838094  12.8716248654  15.9145736641
H   13.8262886671  12.4910968382  17.3051492182
O   18.3487385950  16.4230683378  16.3586328264
H   17.8134898565  16.9260297287  15.6933312034
H   17.6286459882  15.9127610434  16.8374843514
O   13.8162244644  14.2684217014  11.6775736974
H   13.9433295264  14.7560100967  12.4781990835
H   14.2358609236  14.8771168883  11.0121745124
O   16.3782102946  14.6628445799  17.7008316412
H   16.8119213362  14.6548955586  18.6203171708
H   15.5392135968  15.0686018585  17.9316993029
O   12.8609699484  16.5842471808  13.7403071351
H   12.7544698303  17.4917958681  13.2887125452
H   12.0938029019  16.1335735919  13.3556894828
O   16.3093364974  12.1427380562  16.4346440242
H   15.8056658423  12.0263817137  15.5516823263
H   16.3800387486  13.0888301850  16.6653862177
O   14.2482741580  17.0458096368  17.7753742222
H   14.4154108908  17.2567346697  18.7314662711
H   15.0263632764  17.4580157890  17.3950572621
O   15.0000000000  15.0000000000  15.0000000000
H   14.2643454532  15.5563985437  14.5752055554
H   14.5811905020  14.7946623858  15.8956595795
 27
 i =    10230, time =     5115.000, E =     -1680.6054681876                                        
O   17.1659983058  13.5592125487  14.1200930283
H   16.8498940461  12.7670375653  13.6518462624
H   16.3653773881  13.9186140925  14.5462729181
O   13.4814883335  13.5053057443  16.8106443882
H   12.7981295278  13.0548281112  16.2241002910
H   14.0207335446  12.7953559601  17.1433153208
O   17.7108789428  16.6086861540  13.0308362828
H   17.8434621965  16.3674497623  12.1046644093
H   16.9229544431  16.1073132856  13.2802303736
O   14.3228156189  13.3850244713  12.4452740850
H   14.6508707583  14.0964182905  13.0608465268
H   13.9576668478  13.7754525823  11.6693607414
O   16.4723579925  15.2111281836  18.0197804956
H   16.8509739969  15.1986317026  18.9232487711
H   15.5869701288  15.7009128351  18.0146512028
O   12.5442649950  16.0704080121  14.3433023644
H   12.3379108313  16.8622856906  13.8760378420
H   11.9757301593  15.3066266987  13.8727113440
O   17.6392572589  13.0220346090  16.7815936804
H   17.4419009367  12.9273930149  15.8506938077
H   17.2300475991  13.8581380737  17.1075412719
O   14.6523471716  17.2546706994  17.7311247358
H   14.8131172264  17.6726364486  18.6079147616
H   15.0932055471  17.8239880703  17.0908278769
O   15.0000000000  15.0000000000  15.0000000000
H   14.3579057717  15.6331169550  14.6792768203
H   14.5754824386  14.5830973512  15.8164545939
 27
 i =    10700, time =     5350.000, E =     -1680.6258569998                                        
O   17.8136672854  15.1517011274  13.7192317041
H   17.7792586284  14.5142958377  12.9840661254
H   16.9286436271  15.1190700828  14.1656594952
O   13.2848516216  14.5465438163  17.8668736182
H   12.5933847100  14.5157738788  17.1496890291
H   13.7363698459  13.6541530202  18.0360650528
O   14.1392635209  14.5953194505  12.3820470254
H   14.4738836943  14.7336218156  13.3060614949
H   14.5211683737  15.2963975275  11.8168103504
O   16.4221414447  15.9692474778  17.6427009406
H   16.7465475359  16.0481497070  18.5665328890
H   15.5422511649  16.3428002754  17.6887841323
O   13.3523847102  17.2394634090  14.8594481473
H   13.7199371811  18.0293637484  14.3625112888
H   12.6176299651  16.8687507808  14.2469616468
O   11.7439359842  13.6942715567  15.3135529639
H   10.9150325989  13.7729596334  15.8417234269
H   11.9000894932  12.7632984491  15.0579263852
O   17.2716451477  13.4989485807  17.0972368068
H   17.4955816647  13.4342564846  16.1467338387
H   17.0837240487  14.4631561591  17.2803431909
O   15.7597068808  11.7928708259  15.1635563329
H   15.4608305503  11.9343630970  14.2367290124
H   14.9275486845  11.9705349742  15.6066437593
O   15.0000000000  15.0000000000  15.0000000000
H   14.4105606498  15.7684216733  15.2725051110
H   15.2342728471  14.5048479241  15.8395650051
 27
 i =    11170, time =     5585.000, E =     -1680.6572913856                                        
O   17.9674351570  15.0934653344  14.4331385559
H   17.6673007670  14.3113901597  13.9904226962
H   17.2189396975  15.4365214413  14.8981493340
O   13.6868250287  15.2039705874  18.1502793085
H   12.9224154892  15.0142853212  17.5268783094
H   13.7992666190  14.2557242655  18.5504907178
O   13.6487878493  14.2031109265  12.2558432706
H   13.9092010188  14.6466503650  13.1385058423
H   13.9505242685  14.8132717752  11.5262385953
O   16.8305354064  15.4964997883  17.6851288487
H   17.2925840359  15.6122442027  18.5808218054
H   15.9583320371  16.0036028845  17.8926550154
O   13.6087465200  17.5974054866  15.4130155752
H   13.9715726838  18.5054555733  15.0296304841
H   12.8711287652  17.3073727355  14.8364051862
O   12.2521594878  13.5340784862  14.7720335984
H   11.7932886180  13.2548478536  15.5588515340
H   12.5067185391  12.6477597615  14.2956490438
O   16.3230364740  12.7463045787  17.4705430562
H   15.9555279674  12.7394013043  16.5409396422
H   16.3948980891  13.7489826684  17.5884032648
O   15.1658775255  11.7636053676  15.2458334645
H   14.9874826733  11.9687412473  14.3218859365
H   14.3647754315  11.5048878042  15.7344616216
O   15.0000000000  15.0000000000  15.0000000000
H   14.7611775587  15.9298095875  15.0929640818
H   14.3747164782  14.5780462009  15.6181324168
 27
 i =    11640, time =     5820.000, E =     -1680.6023629698                                        
O   17.2914333918  14.5784951321  13.5050558471
H   17.1961958698  13.7299460679  12.9957557595
H   16.4221634873  14.5658826696  13.9553098410
O   13.0905769904  14.4048144366  16.8295807852
H   12.2443794292  14.2596150481  16.3357298802
H   13.0544534227  13.7451547517  17.5571111819
O   17.4963718623  17.3528042000  12.7931806488
H   17.4732840038  17.1468611048  11.8230894371
H   17.1021774259  16.5305207099  13.2007421105
O   12.9663135110  13.8205289794  12.5817451799
H   13.7625806848  14.1522506552  13.0601935805
H   13.2438559244  13.7138742464  11.6052833797
O   16.2216188808  15.7779298605  17.8113698823
H   16.4771252312  15.8716433261  18.7577449964
H   15.6008995346  16.5255037281  17.6761699713
O   12.7660724246  17.1290926049  15.1824592047
H   12.8901913026  18.1013122657  14.7866083620
H   12.1546897540  16.7647950587  14.5202181095
O   16.2942229937  12.9035642694  17.2135860069
H   15.8464174794  12.2176134090  16.7327464106
H   15.7491345883  13.6749453126  17.1433736835
O   14.5497668778  11.2876439559  15.6785257832
H   14.2960463233  11.4705303607  14.7183231475
H   13.7451541666  10.9671227411  16.0912161953
O   15.0000000000  15.0000000000  15.0000000000
H   14.5916453754  15.9452596811  15.0108408097
H   14.2780979590  14.4483567240  15.4071158965
 27
 i =    12110, time =     6055.000, E =     -1680.5742074167                                        
O   17.4798755298  14.4972887115  13.8824479281
H   17.1866835114  14.2155752964  12.9832747681
H   16.6638401171  14.6607079087  14.4017262424
O   13.3120417358  13.6188735627  16.8386874041
H   12.3933210615  13.5105796321  16.4575019253
H   13.1688024347  13.5971291749  17.7899549211
O   17.8598691131  17.4052461818  13.7209490646
H   17.5217158014  17.7755326283  12.8435506698
H   18.1796518141  16.5065782616  13.4134558552
O   12.8481402082  13.9231775829  13.0398968766
H   13.4770882877  14.5120416259  13.4797903147
H   13.2099812826  13.7185262603  12.1866277910
O   16.4435360587  15.8764153255  18.3347569426
H   16.9679231988  15.9865963109  19.1974484292
H   15.6666358597  16.4292717165  18.4774171786
O   13.3667867943  17.3151066719  15.3357874067
H   13.2788495640  18.2393971437  14.8795619369
H   12.7523290095  16.7872209213  14.8346744571
O   13.7988791192  11.5023762246  13.6147549178
H   14.4714393267  11.7906167381  12.9861719963
H   13.1922706759  12.3336181216  13.5593488939
O   16.4944551765  13.0857733462  18.0294033013
H   15.8905319070  12.7607213801  17.3327823092
H   16.2464213648  14.0377180723  18.0257596104
O   15.0000000000  15.0000000000  15.0000000000
H   14.9114827318  15.9456085968  15.1291531217
H   14.5718510596  14.6663739938  15.8233689500
 27
 i =    12580, time =     6290.000, E =     -1680.5934820923                                        
O   18.0881082054  15.2393596680  14.3839473006
H   17.6456805081  14.8352180028  13.5628903845
H   17.3751530661  15.2908415384  14.9613637928
O   13.7234604982  13.5215282886  17.1126313009
H   12.8489485314  13.2159559181  16.7343653417
H   13.6313955651  13.5298218009  18.0399492436
O   16.7881755501  13.7650705419  12.0886181047
H   17.4148421794  14.0763216282  11.3530348844
H   16.7750802798  12.7948369223  12.0115057025
O   13.8026085203  13.0842683123  12.9880969647
H   13.9987929757  13.9459097465  13.4513371987
H   13.7503578098  13.4047677745  12.0367960804
O   12.0527309169  15.8109625314  12.2013711204
H   12.4455287813  14.8777344338  12.2203410060
H   12.8472562696  16.4905266422  12.1618242456
O   17.3111462572  15.7951812454  17.9921260526
H   17.3314796552  15.9195275716  18.9508632517
H   16.5981376434  16.3360533107  17.6459597540
O   12.9370664934  16.8046283038  16.0165161978
H   13.1861978778  17.7603419458  15.6463536236
H   11.9729075965  16.7106613664  15.8871581746
O   15.6459017488  11.4029599009  13.9554851327
H   16.5275794518  11.7894114079  14.1137708371
H   14.9765101623  12.0352662280  13.5252224026
O   15.0000000000  15.0000000000  15.0000000000
H   14.1961806841  15.5852356348  15.0883287803
H   14.6955651952  14.2854732755  15.5988626038
 27
 i =    13050, time =     6525.000, E =     -1680.6023505498                                        
O   16.7127936411  14.5562014427  12.9316059597
H   16.0931646709  14.1878066369  12.1982261110
H   16.0960764124  14.5475976808  13.7798104284
O   12.8657507025  13.6302584361  16.1293704648
H   12.0998940132  13.4628982064  15.5043008650
H   12.7251324266  13.0994120305  16.9305560516
O   14.3233515912  14.0843889739  11.8393756100
H   13.7535174034  14.8378069046  11.9747943061
H   14.2127119233  13.8277649504  10.9182899483
O   12.1759605262  17.5183561448  16.7334023944
H   12.9823752159  17.2878279971  17.3026701536
H   12.4526068285  17.4109364071  15.7475912965
O   17.1697972063  14.7455653851  16.7623578068
H   17.2469474742  14.6347069208  17.7199714983
H   16.2923736673  15.1197528991  16.5530472096
O   12.5751069403  16.3777904633  13.7811303649
H   12.8319099523  17.2311934444  13.3157568687
H   11.6165651610  16.4103392030  13.6650588709
O   16.2974631472  12.1166057842  16.5742285360
H   15.3824529890  12.0040425758  16.3113196421
H   16.4613269036  13.0522253905  16.3896602863
O   14.6808204586  16.9498187585  17.9158962574
H   15.0235782764  17.0429950801  18.7841210409
H   15.3090634233  17.5031336478  17.3972040787
O   15.0000000000  15.0000000000  15.0000000000
H   14.2133962310  15.4138554298  14.6711762895
H   14.5321490675  14.2264021565  15.1898982980
 27
 i =    13520, time =     6760.000, E =     -1680.6180496769                                        
O   17.4699356699  14.5678104110  13.5443554945
H   17.0231441106  14.5696213557  12.5900181704
H   16.7468118539  14.6311628817  14.1513945823
O   13.4724118680  13.4686999559  16.7069808401
H   12.7063675279  13.0046985424  16.2639409303
H   13.8290748713  12.6536532959  17.1412859111
O   14.3338227509  13.2251964201  12.0566853378
H   13.7474792525  14.0004515070  12.1067850032
H   14.5766586913  13.2590986560  11.0864244520
O   12.5682772926  17.1352197937  16.1142040007
H   13.5542325318  16.8818096621  16.3322764805
H   12.5742986724  16.7727442424  15.1223303967
O   17.5999115751  15.4056299409  16.9914803114
H   18.1994453184  15.0337931876  17.6889089189
H   16.9012619937  15.9472522516  17.4213740651
O   12.9732156119  15.8526281153  12.8811099415
H   13.3505963490  16.7659092583  12.8354270872
H   12.6197317468  15.7685360238  11.9669479098
O   16.6413938638  12.6080387998  17.1476904488
H   15.9026196545  12.3749023146  16.5153013876
H   16.7739994549  13.5911278146  17.2499994350
O   15.6152130237  17.1935937465  17.7879098955
H   14.8534702976  17.1313318340  18.3893291068
H   15.8012562003  18.1450015338  17.5081590531
O   15.0000000000  15.0000000000  15.0000000000
H   14.3231212481  14.8350790028  14.3214239247
H   14.7199923174  14.4374009334  15.6642441694
 27
 i =    13990, time =     6995.000, E =     -1680.6482311667                                        
O   17.1530364079  13.4868589290  12.7371447763
H   16.9251381090  12.9348586995  11.9580789507
H   16.2243961665  13.7979747537  12.9152014444
O   13.3170784546  14.2755620324  17.1689934512
H   12.4079444960  14.1966805802  16.9413010794
H   13.6256575155  13.5701666530  17.7643760886
O   14.0812414526  13.9502508856  11.7536607692
H   13.1909203463  14.2773727757  11.9263601144
H   14.2118843757  13.8782446261  10.7685345717
O   12.5050415025  17.1727612579  15.9853901879
H   13.3387861197  16.6792276428  16.3027862313
H   12.5829105722  17.0384220566  15.0338313162
O   17.4776016222  14.9836912234  16.6852799428
H   17.6164007546  15.4008303628  17.5461321701
H   16.6970250181  15.4744050459  16.3587040404
O   12.8440267943  16.7304799982  13.2158022523
H   12.8109865152  17.6788170675  13.1561062096
H   12.1073372188  16.3274623217  12.7041060020
O   16.2440328175  12.4830601391  17.0533835456
H   15.6607074397  12.2006197489  16.3026268407
H   16.5226024867  13.4071093737  16.8941482284
O   15.9323302896  17.3215710571  17.5079435967
H   15.5296275969  17.2961927926  18.4127367074
H   15.5737150907  18.1492983041  17.1223322946
O   15.0000000000  15.0000000000  15.0000000000
H   14.2830059258  15.0828243507  14.3133540526
H   14.4899971088  14.5854546705  15.6360201446
 27
 i =    14460, time =     7230.000, E =     -1680.5774750074                                        
O   16.2603117711  12.6321248880  13.6512023080
H   16.2096045325  12.2275876165  12.7719215908
H   15.7915979084  13.5086217968  13.7674076268
O   13.6398739415  14.2343929804  17.2957590445
H   12.6823786071  14.2397308762  17.5293622073
H   13.9248712084  13.8893285785  18.1850104013
O   17.1673877287  16.9479298056  13.8625922091
H   16.4497298282  17.0272419033  13.1562697249
H   16.8918951899  16.2745894039  14.5860219254
O   13.4571206643  14.1164441318  11.8833440771
H   12.5619745198  14.4106145662  12.0446382777
H   13.3994686879  13.5119675293  11.0824707234
O   12.5848040109  17.1120570352  16.8577309839
H   13.5154185109  16.9681569069  17.2616509301
H   12.6007156303  16.9976453426  15.9263581360
O   17.0908178602  14.5396938790  17.4149622467
H   16.8709683636  14.5998331289  18.3704138471
H   16.3675675571  15.1159914761  16.9944222985
O   13.7884098859  17.0100141611  13.2311172404
H   12.8089031427  17.2300454364  13.3152984657
H   13.8337605613  16.8017153358  12.2475218113
O   15.9665268445  11.9851948051  16.8709440268
H   15.1601339261  12.1099503890  16.2892623094
H   16.3626709855  12.8872502499  16.7618615439
O   15.0000000000  15.0000000000  15.0000000000
H   14.5357164431  15.6534105210  14.4189488010
H   14.4160233454  14.6462077171  15.7177041636
 27
 i =    14930, time =     7465.000, E =     -1680.6449688436                                        
O   16.2156146386  12.5149081995  13.6205429310
H   15.7744833064  12.4752757181  12.7945473165
H   15.7990779801  13.3649352035  13.9629512141
O   12.9925230013  13.3509241449  16.7332881050
H   12.4942116213  13.9851698524  17.2188138860
H   13.7705166735  13.0334584953  17.1881738688
O   18.4061362515  15.7282446509  16.3878758614
H   18.2006797746  16.7049262326  16.2375695059
H   17.5718289128  15.3701962425  16.9072528143
O   17.1146198804  16.5163152598  13.8392702203
H   16.6928717315  16.3711239948  12.9310225584
H   16.6873649671  15.8325568957  14.4722174105
O   12.1283891583  16.7146168625  17.0055692038
H   12.9070087766  16.5391687765  17.5390380262
H   12.2703885741  16.3521290125  16.0750229539
O   16.2477899439  14.4208655173  17.6171045208
H   16.5895481335  13.9869385237  18.4900666378
H   15.4734076670  14.9019589741  17.9940808897
O   13.7412950153  16.6444370042  13.2376479149
H   12.9796674754  17.2020746749  13.5237404674
H   13.5958046143  16.4832021821  12.2049803012
O   15.8146584648  11.8461296753  16.3560852353
H   15.9947604501  11.7574124196  15.4051964425
H   16.0607760598  12.7925686386  16.5479431148
O   15.0000000000  15.0000000000  15.0000000000
H   14.5229645683  15.6359854902  14.3285939503
H   14.2888691807  14.5161170476  15.4556450550
 27
 i =    15400, time =     7700.000, E =     -1680.6226625979                                        
O   16.6265370735  13.3198983079  13.7728812578
H   16.3544389146  13.5000281785  12.8644474916
H   16.0240254093  13.8333083967  14.3776941318
O   12.8464359222  14.0508120435  16.7799648583
H   12.3729768979  14.9289061747  16.7739829170
H   13.0084685987  13.9616063655  17.7254035838
O   16.5623763928  17.5079794802  12.7572713695
H   16.4234380020  16.9559637026  11.9637013529
H   15.7368584172  17.1151599196  13.1853676965
O   14.3694489026  13.6733259859  11.5839304735
H   13.9068685862  13.7822303924  12.4530487448
H   13.8683230477  13.0614972537  10.9489975565
O   12.0473257484  16.5894829665  16.4237683930
H   12.9632539273  16.8967213743  16.7046897721
H   11.9295751507  17.0166016236  15.4977299734
O   16.3190137917  14.5424642662  17.5069151023
H   16.4003691130  14.3852575208  18.4413921942
H   15.7094844647  15.3585971214  17.3227507341
O   13.8195563576  16.3181624861  12.9501540402
H   13.0022797716  16.2215131851  13.4189197807
H   13.6051620811  15.7918139740  12.1056532655
O   14.3578443877  17.0499986542  17.7442316800
H   14.0766782327  16.8892307093  18.7111156359
H   14.8441165286  17.9732588059  17.6753677249
O   15.0000000000  15.0000000000  15.0000000000
H   14.6720840113  15.3953144451  14.1476131916
H   14.2134772932  14.6301329974  15.5303403817
 27
 i =    15870, time =     7935.000, E =     -1680.6226903138                                        
O   16.6844460577  13.1550202915  14.1635891815
H   16.2408701579  12.7733347468  13.4172767276
H   16.0908107474  13.8819153883  14.4590005462
O   12.7407998136  13.6113001094  16.7348365112
H   11.9608500643  13.8348477711  17.3014527549
H   13.2252832507  12.8907111400  17.1588196178
O   14.5869033238  13.9756522284  12.1991616730
H   13.9077698192  14.4560999945  12.7710967051
H   14.0729459046  13.8110428619  11.3458058823