 25
 i =     6000, time =     3000.000, E =     -1700.8272966133                                        
O   11.2230544615  14.1329251834  16.2060862127
H   10.4141674485  14.5271574331  16.6410249530
H   11.7429960883  14.9668204083  16.0092198723
O   15.0744586656  13.4163860242  17.0388696710
H   15.2836791660  12.5415762762  16.6164708182
H   15.6992403148  13.5176910073  17.7879860496
O   16.9472736110  16.7264857300  16.0874851675
H   17.8916172500  16.5575494572  16.1272182524
H   16.7760623622  17.6280663494  15.7172083416
O   13.4343485005  17.0697166603  15.4585759860
H   13.2156465645  17.2693715922  14.5397931387
H   13.6262204253  17.9693580519  15.8296080707
O   17.6527525251  14.3047324193  14.6116076818
H   18.2162775396  14.0828535098  15.4159648343
H   18.1428047524  14.9415862257  14.0269390151
O   15.1284553832  13.6076977661  11.4584126391
H   15.7754767982  13.0099618603  11.9731811077
H   15.7249099665  14.2310483701  10.9811046739
O   15.1595943540  16.6284156058  12.9288708865
H   15.6230842146  16.3632322270  12.0690543368
H   14.1886622717  16.9569221683  12.7380740132
O   13.7377989370  13.6445079813  13.5403379821
H   14.0222441866  13.8116524302  12.5739675944
H   12.7616018531  13.6224081518  13.4948398892
Na  15.0000000000  15.0000000000  15.0000000000
 25
 i =     6500, time =     3250.000, E =     -1700.8208937534                                        
O   11.4804994112  14.8407016398  16.6535884306
H   10.5530469056  15.0404982018  16.9540194572
H   11.9855975181  15.2490328173  17.3701205822
O   15.0883304795  13.6878511363  17.0911085528
H   15.7621261083  12.9593926355  16.8984689063
H   15.3573804644  14.0787663854  17.9625086637
O   16.4769698929  18.2676241538  13.4678380996
H   15.5700667199  17.7889374275  13.4570886847
H   16.4226202428  18.7285615772  12.6335979178
O   16.6220611173  16.9357870219  16.5481282592
H   17.4719117152  16.7140728016  16.1152584589
H   16.5401938980  17.8634061042  16.3618549728
O   13.4499866257  17.4606670472  15.0755900613
H   12.7652315934  17.1787811574  15.6960224371
H   13.0879411429  17.3362723767  14.1713388484
O   17.3875488512  14.5132976810  14.4108553723
H   17.9718771342  14.2608133126  15.1819213920
H   17.8078620566  15.2162901403  13.8473397328
O   14.9577664512  16.1629135779  12.6696138862
H   15.4414605905  15.9445554680  11.8775785145
H   14.0394112297  16.2446494224  12.2945151709
O   13.4036014554  13.7519184889  13.2343365100
H   13.9296457070  13.6319468882  12.3725853288
H   12.4352188896  13.9608063682  13.0345433602
Na  15.0000000000  15.0000000000  15.0000000000
 25
 i =     7000, time =     3500.000, E =     -1700.8357761966                                        
O   14.6663726760  13.4254597601  16.6103361903
H   15.0675971781  12.5573699605  16.3740744503
H   15.2195614560  13.6777533470  17.4171183796
O   16.9110636690  17.0537607839  15.7548765430
H   17.8123721832  16.9652650510  16.1424893468
H   16.4699759614  17.8495435698  16.0728219397
O   13.9565406732  17.6373549560  15.9132078144
H   13.0584095341  17.7507402030  15.5117255300
H   14.4844243395  18.3475839639  15.5405573724
O   17.8499931022  15.9404139919  13.2973143695
H   17.4725342259  16.1752925434  12.4319865766
H   17.3225033307  16.5416622080  13.8795793054
O   17.1221025004  13.3973577337  14.1568197903
H   17.4433353873  13.0252157746  15.0414799857
H   17.7336426392  14.1484726506  14.0095096597
O   15.3722092801  13.8775178318  11.2219017573
H   15.8922901160  13.2746882838  11.7949655241
H   15.9779525834  14.4715481771  10.7971724785
O   14.7187236615  16.2137956884  12.9367166937
H   14.9230506984  15.5490090531  12.1854247066
H   13.8289194464  16.6343048887  12.7393754899
O   12.9666957241  13.9018925652  14.1886869381
H   13.3884835569  13.8130519767  13.2809834333
H   12.0117172976  13.7767771075  13.9410070783
Na  15.0000000000  15.0000000000  15.0000000000
 25
 i =     7500, time =     3750.000, E =     -1700.8346393279                                        
O   15.0929417461  13.3906300349  17.0914672738
H   15.4946986695  12.4877486954  17.0334747730
H   15.7505340581  13.8659775463  17.7252770460
O   16.2000708764  17.7885169114  13.7769775346
H   15.5876178249  17.2360785880  13.2277467565
H   16.3802740982  18.5795858358  13.1296193260
O   17.0416740439  15.8510208550  16.2918183032
H   17.9525218190  15.5430525303  16.0532495103
H   17.1841213559  16.8121282688  16.1341041394
O   13.5456167539  16.8942804412  15.5283041116
H   12.5817102535  16.8753325725  15.7594463562
H   13.6328621021  17.7395693759  14.9937509373
O   17.9048519440  15.7025366683  13.2658166331
H   17.7202409686  15.9531622570  12.3109925422
H   17.4783360992  16.5416737794  13.6604518879
O   16.9867671705  13.0573046971  13.6653906729
H   17.2538158766  12.6603964416  14.5114992456
H   17.5316709055  13.8296045543  13.5060322581
O   14.5436900997  15.9566512064  12.5443315658
H   15.0146638087  15.3317437013  11.8835699124
H   13.8447167936  16.4088156396  12.0395875233
O   12.8528681955  13.6183248115  14.3895830567
H   12.2498849402  14.0442642694  13.6681451573
H   13.1567428712  12.8417412250  13.8817083502
Na  15.0000000000  15.0000000000  15.0000000000
 25
 i =     8000, time =     4000.000, E =     -1700.8563271969                                        
O   15.0969467920  13.5170401538  16.9671143894
H   15.2668580265  12.6231421411  16.5583313709
H   15.6906781091  13.4926452765  17.7593504361
O   15.7011225078  17.9993798043  13.9376344060
H   14.8679570377  17.8105404435  13.4860428145
H   16.2803967163  18.1964115261  13.1870379050
O   16.8575888347  16.2163547447  15.8962163944
H   17.7999647601  15.9752058337  15.9614915034
H   16.7972288025  17.1754967666  16.0716405909
O   13.2536362692  17.1452725022  15.8743494953
H   12.3637148479  16.6756087070  15.7894281860
H   13.0860123754  18.0209080445  15.5264388056
O   17.7839962356  15.9407684715  12.9442194745
H   17.2624969355  16.2409943379  12.1469603650
H   17.2135733836  16.1759773818  13.7522050742
O   16.9536679457  13.4444521111  14.0203163699
H   17.6533235873  13.3396351577  14.7493093174
H   17.3267188551  14.1143595285  13.3987441641
O   14.6496609697  15.0676592041  12.6173249278
H   15.0307924722  14.5313608617  11.9936073320
H   14.0269264659  15.6877905567  12.1462778353
O   12.4675318080  13.8144834080  14.3779851633
H   11.6366033771  14.3657020827  14.4749380781
H   12.7253072644  13.8275663682  13.4398035706
Na  15.0000000000  15.0000000000  15.0000000000
 25
 i =     8500, time =     4250.000, E =     -1700.8660438953                                        
O   14.9417964731  16.7209320908  18.4173938698
H   14.2750424440  17.0079476430  17.7451487352
H   15.4567543323  16.0251700127  17.9359196282
O   14.9017425483  13.4877986111  17.5900035315
H   15.1303474783  12.5158593190  17.5399773425
H   15.5312918713  13.6392428925  18.3547646914
O   16.7065994934  16.3506093382  16.2076935147
H   17.6271208975  16.0033996121  16.3717223127
H   16.8586747568  17.3005329462  16.0008018426
O   13.4161661554  17.5801331793  15.7710414294
H   12.6079217788  16.9944226862  15.7835190388
H   13.0499540662  18.4227967335  15.6718835263
O   17.8753335904  15.7697900430  13.0543609024
H   17.3431241417  15.9295983303  12.2330344981
H   17.3763734101  16.2574950506  13.7360642236
O   16.5358680440  12.8826853587  13.8798362806
H   17.1860164988  12.9047694420  14.6193123700
H   17.0776175236  13.4402663406  13.2466383938
O   14.9889544050  15.4858003849  12.3867846936
H   14.7091963209  14.5458814684  12.1882775845
H   14.1709292855  15.9932860538  12.1537739672
O   13.0575823774  13.6532330685  14.5065317264
H   12.3566783222  13.4600739046  15.2067277605
H   12.5126046962  13.7514130867  13.6867106824
Na  15.0000000000  15.0000000000  15.0000000000
 25
 i =     9000, time =     4500.000, E =     -1700.8369163222                                        
O   15.2313855220  16.1398320630  18.3082520838
H   14.6469960481  16.3190456015  17.5407061435
H   15.8681455687  15.3781008989  18.0237194330
O   16.4248329740  13.7418631367  17.6327642653
H   15.8141108031  13.0182950100  17.3642378883
H   17.3350988005  13.4565949184  17.8475423827
O   16.8007925096  16.2167678426  15.8233947913
H   17.6320783874  15.7860520256  16.0859165452
H   16.7399430794  17.1210423417  16.1856283526
O   13.6305767724  16.9597938851  15.8438913331
H   12.6095789235  16.6749982299  15.7536145638
H   13.5098248865  17.8152768398  16.2746451215
O   17.5584641239  16.1970593849  13.0151820048
H   17.2727972372  17.1506502731  12.9987368944
H   17.3056191489  16.1408874547  13.9715132832
O   16.3819819631  13.0216225108  14.3548767638
H   17.2591863408  12.7738485010  14.7519026497
H   16.4205618977  12.9785843331  13.4013209057
O   14.5806640827  16.5327941643  12.5068811715
H   15.1246599619  16.5746929998  11.7188889240
H   13.6987472554  16.4097648011  12.1480558735
O   13.1671498371  13.3456257501  14.5400769599
H   12.3144730165  13.4075059609  14.9388483038
H   12.9562780767  13.4066169774  13.6060638882
Na  15.0000000000  15.0000000000  15.0000000000
 25
 i =     9500, time =     4750.000, E =     -1700.8579478384                                        
O   13.2764828076  13.6874721773  17.6449154475
H   13.9653337345  13.0997345572  17.2055230575
H   13.6034049002  14.5289517680  17.9778240699
O   15.3256523875  11.8873985477  16.6582902966
H   15.5732844949  12.1401243260  15.6718107712
H   15.0740742122  10.9450862111  16.6738965375
O   16.6589607953  13.9602245961  17.6038526787
H   16.0564628706  13.1824121231  17.3555027772
H   17.4084810068  13.4496345142  17.9608846180
O   16.5961773627  16.2852745439  15.8715709690
H   17.4238343928  16.0710843775  16.3230314902
H   16.5629229525  17.3087192066  15.8802021057
O   13.5886478779  16.6206353400  16.3156461822
H   12.6799044344  16.2843484350  16.1998154250
H   13.5676626176  17.5133081132  16.5466077052
O   16.9192993750  13.1787326065  14.6896444719
H   17.7237712874  13.1203916706  15.2911396839
H   17.2104056736  12.8087840704  13.8258232085
O   15.0238533382  16.1780094903  12.9101028003
H   15.9623789551  16.0621660837  12.5403600354
H   14.3893659091  16.0609540728  12.1480582805
O   13.1045766969  13.5067405011  14.5163271856
H   12.2269507566  13.7112445032  14.9270658172
H   12.8673345462  13.5131509693  13.5287944404
Na  15.0000000000  15.0000000000  15.0000000000
 25
 i =    10000, time =     5000.000, E =     -1700.8273590016                                        
O   15.0745995391  11.8325619445  16.2704324057
H   15.4022561561  12.0228191249  15.3249650623
H   15.0682795563  10.8882875671  16.2852143096
O   16.8053460291  13.5985975633  17.8590156220
H   16.4409472706  12.8134774321  17.3791016860
H   17.7135631069  13.1924088318  18.1063777295
O   16.9371323772  16.3304775409  15.7675208804
H   17.7268353164  15.9313860358  16.1857198370
H   17.0784133661  17.2572921405  15.8341813855
O   13.6613594533  16.6321657998  16.0331950189
H   12.7037870299  16.6196620873  15.6300423718
H   13.6582256494  17.5665222818  16.3393137342
O   17.7310220668  15.7434575384  12.8493958280
H   17.4248924707  16.5336662862  12.3925794837
H   17.5596602505  16.0646073000  13.7629758257
O   16.6788412236  13.2359179049  14.1684388367
H   17.3168767441  12.4916675136  14.0609152023
H   16.8341390583  13.6702739250  13.2796331643
O   14.7417700157  15.4687401088  12.5415127756
H   15.3423973607  16.1465493919  12.2129777364
H   13.8168654042  15.6514726804  12.2771669381
O   12.7809812503  13.7954680405  14.6545542234
H   12.0893494538  14.4611244028  14.6926633967
H   12.6304686826  13.3019112096  13.8452157356
Na  15.0000000000  15.0000000000  15.0000000000
 25
 i =    10500, time =     5250.000, E =     -1700.8281060571                                        
O   14.9842266652  11.8736850082  15.8268378284
H   15.2663998021  11.7490905009  14.8628936158
H   14.9454485596  10.9560932801  16.1582606468
O   14.7768671098  15.2611977456  18.0087005347
H   15.0996839314  16.1769270018  17.9217337807
H   15.6296814005  14.6561903742  18.0178452644
O   17.0426188794  13.2717193329  17.4113830572
H   16.6325614846  12.5210488916  16.9146455930
H   17.9646762794  12.9544902788  17.4950639589
O   17.0201485650  16.1282254184  15.6193060568
H   17.7822786903  15.6509633760  16.1107870465
H   17.0612640316  17.0937558707  15.9116363174
O   13.5639613158  16.9081513282  15.7659978982
H   12.6279574206  16.5775725912  15.6612942969
H   13.4856738638  17.6527015201  16.4314090640
O   16.6105534983  13.4737151963  13.5978341994
H   17.3533841122  13.3570116512  14.2059425692
H   16.9268784184  14.1108975539  12.9219548920
O   14.4390537193  15.1716078125  12.5249037878
H   13.7259246881  14.9091321011  11.9382857016
H   14.4483053003  16.0945267003  12.2920177205
O   12.4082133837  13.6101530498  14.5744882424
H   11.5549931356  13.9797818707  14.8827458627
H   12.2113728901  13.3849201086  13.5830719613
Na  15.0000000000  15.0000000000  15.0000000000
 25
 i =    11000, time =     5500.000, E =     -1700.8428058509                                        
O   13.3869758135  13.0668218462  17.5381460722
H   13.9882534652  12.4869512962  16.9322373104
H   13.8159189883  13.9379909706  17.7915627008
O   15.0146540301  11.4042992650  16.2701514621
H   15.0728953443  11.3454170425  15.2566601779
H   14.7836077852  10.4819997189  16.5442622591
O   15.6822975661  14.9358615293  18.1371551157
H   15.8624516221  15.6946973400  17.5999036870
H   16.3183513923  14.2550648292  17.7300246135
O   17.0120597168  16.1736684307  15.5999198401
H   17.8187974871  15.8795975152  16.1120490092
H   17.0743779961  17.1882805958  15.3959745469
O   13.8399141641  16.6741300532  16.4028719402
H   12.9672153673  16.5901182924  16.0275892241
H   13.9777680654  17.5940831722  16.6207406255
O   16.3058565776  13.2217609122  14.5434369555
H   17.1657831952  12.9620189250  14.9442428254
H   16.4431373212  13.1075353406  13.5586647443
O   14.6022492314  16.0011138865  12.9568536458
H   13.8376056862  15.9098238127  12.3439273135
H   14.8286635596  16.9854673448  12.9273292508
O   12.9304781919  13.4204659268  14.2385264300
H   12.7070549673  14.3191652626  14.5234205428
H   12.3837698677  13.3643776853  13.4227168162
Na  15.0000000000  15.0000000000  15.0000000000
 25
 i =    11500, time =     5750.000, E =     -1700.8556398193                                        
O   11.5290934154  16.4161092188  14.4365375884
H   10.9441984011  15.7497269094  13.9295853590
H   10.9120373214  17.2393830352  14.4870501441
O   15.5638815850  14.4318991176  18.0752747238
H   15.8808096035  15.2732995750  17.7432585566
H   16.2269238630  13.7741390516  17.7860404473
O   17.0976565284  16.3153705891  16.4323316076
H   18.0192244336  15.9429676325  16.4323029117
H   16.9584033971  17.1570202922  15.8746936164
O   13.5422057517  16.8735754535  16.6521211308
H   12.6707833561  16.7532420386  16.2993761053
H   13.4795450942  17.8478501421  16.8342785629
O   18.5072010944  15.5904441255  13.0807295502
H   17.8521486455  16.1497057877  12.6221840795
H   17.9333741205  14.9503698909  13.5726152735
O   17.0898370382  13.7210897285  14.5869103888
H   17.3129381773  13.6206375130  15.5368279414
H   17.0067097530  12.8073774395  14.2856991577
O   15.4064878830  16.4043560085  13.0416669538
H   14.7084166324  16.5697004853  12.2975393728
H   15.7326961697  17.3646434949  13.1942883466
O   13.6026939854  13.1769716242  15.1296779329
H   13.1386617194  12.8519610454  14.3179492126
H   13.5751883368  12.4710170588  15.8189179060
Na  15.0000000000  15.0000000000  15.0000000000
 25
 i =    12000, time =     6000.000, E =     -1700.8238625525                                        
O   12.0138614780  16.9760590216  13.5829893790
H   11.0777337775  16.8098625366  13.4322079468
H   12.1734019215  17.9131093724  13.7198834896
O   14.9614219185  15.1259386049  18.4412048725
H   15.2935988023  15.8110802985  17.7831750131
H   15.6610656048  14.3833214938  18.4940943121
O   16.4218301967  16.5777504736  15.9557459711
H   17.3569887658  16.2678265433  15.9317333829
H   16.5871483175  17.5686026330  15.9346840261
O   12.9773494696  16.1288869410  16.1044827080
H   12.4078901873  15.9447326262  15.3672322766
H   12.8603225357  17.1127170403  16.3118096042
O   16.8155228624  13.3614465575  14.7137769029
H   17.0582378239  12.5779815445  15.2434386448
H   16.3113369866  12.9588402243  13.9823147311
O   15.2834701446  16.0433963829  12.7823113577
H   15.0432047662  15.9450800596  11.8451069447
H   15.6456634989  16.9829087559  12.8178904836
O   12.9893298783  13.8312385777  14.7117622004
H   12.6719332211  13.2143531312  14.0427579945
H   12.2975701032  13.7672547825  15.4104240719
O   15.4893466570  12.1302811918  12.7531679575
H   14.5374046037  11.9852659089  12.5396013724
H   15.9521650989  12.3828150823  11.9482410314
Na  15.0000000000  15.0000000000  15.0000000000
 25
 i =    12500, time =     6250.000, E =     -1700.7961534726                                        
O   13.5005154123  13.5010979803  17.8073682656
H   13.9391501295  12.7982760927  17.2914683859
H   14.0582575453  14.2811911779  17.6440338815
O   11.9633490353  16.9589013724  13.8748975505
H   11.7172917887  16.0455853530  14.0265034995
H   11.0980498624  17.5229831121  13.9896585291
O   15.7656137108  15.2459720375  18.0111470703
H   16.4310473133  15.6122302532  17.3095683962
H   16.0534921907  14.3550803312  18.1093655917
O   16.9820144670  16.3055715560  15.8718072878
H   17.9749375757  16.2547523782  15.8479273487
H   16.7421667346  17.2269290106  15.8597402937
O   13.5029779332  16.6856411192  16.6090617065
H   13.0641932444  17.0994463034  15.8291523967
H   14.3964603316  17.2102782099  16.6928188223
O   17.0174407764  13.4795802900  15.0760376704
H   17.1459525401  13.3220535876  16.0262870125
H   17.4737729579  12.6629708694  14.7120613147
O   15.3162331114  16.5396441393  12.9284987405
H   14.5614296210  16.7057829630  12.2528385014
H   15.9099807950  17.3308961380  12.9262627389
O   12.6985008308  14.1564797669  14.3897539696
H   12.4723448461  13.8234612294  13.5302808060
H   11.9558148788  13.9867218530  15.0159292141
Na  15.0000000000  15.0000000000  15.0000000000
 25
 i =    13000, time =     6500.000, E =     -1700.8654376386                                        
O   13.5061823780  13.3264434882  17.3505290202
H   14.1155495694  12.5964058146  17.2443920958
H   13.9640305131  14.1157936053  17.6360364507
O   15.7296929979  14.8717074924  18.1071568167
H   16.2202177702  15.6387567443  17.6748351176
H   16.2447218613  14.0929581043  17.9500313585
O   16.8884006978  16.7287715953  16.3670506131
H   17.8439425114  16.8686693224  16.2843635852
H   16.5432157632  17.6419741035  16.0960442720
O   13.5252842593  17.1216798038  16.1351650996
H   12.8756260587  17.1689269074  15.4020628703
H   14.0609656103  17.8980984116  15.9952811277
O   16.5209549993  12.9617475423  15.1028401219
H   17.1626792604  12.9027387412  15.8409967610
H   16.9404786800  12.4493460155  14.3739204366
O   15.3806285870  16.1580289804  12.7378404186
H   14.7175654923  16.3916759038  12.1396591906
H   16.0296137606  16.8775812168  12.4881488798
O   12.4092936884  14.3780029041  14.3589167502
H   12.8492326223  13.8895740070  13.6932146440
H   11.9081186716  13.6628456781  14.8935761661
O   14.3180381488  12.8006807168  12.6634710615
H   13.5575893495  12.5213088127  12.1266179458
H   14.8622428255  13.1682484247  11.9949730553
Na  15.0000000000  15.0000000000  15.0000000000
 25
 i =    13500, time =     6750.000, E =     -1700.8297572736                                        
O   14.5160655908  13.4861666532  17.1974861760
H   15.0627746276  12.6531167395  16.8305735523
H   15.2440014926  14.1818902166  17.3203157950
O   12.0322065064  17.3635448787  13.9629781257
H   11.5326101629  16.5067275748  13.9916502769
H   11.4589453385  18.0561320592  14.3878251959
O   16.5674848274  15.2512845642  17.9910008841
H   17.0362165385  16.0564744711  17.5881281621
H   17.2862067836  14.4944624893  18.0860346628
O   17.0658909929  16.8636780685  15.4016076080
H   17.9431791496  16.6485405570  15.7378248126
H   16.7039564251  17.6230496790  15.8857793533
O   13.4069469641  17.2123704464  16.2377597903
H   12.9139161476  17.0083432503  15.3252093619
H   14.1761789513  17.7303852879  16.0128454654
O   16.8568973802  13.4670053832  14.9798896523
H   16.8495275469  13.2920407528  14.0294903968
H   17.7833793654  13.8158099857  15.0498302436
O   14.8124988895  14.8824627975  12.2289251332
H   14.5159437937  13.9467938366  12.0538524427
H   14.0672878643  15.5350040841  11.9567950414
O   12.6145220513  14.6619848179  14.4425143234
H   12.2111488454  14.3371978084  13.5780184930
H   12.3526078494  13.9782914911  15.0408418713
Na  15.0000000000  15.0000000000  15.0000000000
 25
 i =    14000, time =     7000.000, E =     -1700.8569314709                                        
O   14.2905285088  13.0536670408  17.7897679314
H   14.6605127401  12.4615746173  17.1403403377
H   15.0165201540  13.6720090785  18.0104628870
O   12.1533169143  17.2956829670  14.2959463970
H   11.7048502309  16.5653028723  13.8122307917
H   11.3996064780  17.8954318808  14.5387311278
O   16.5076421963  14.6403187001  18.3511019396
H   16.5678622707  15.3155054102  17.6367814341
H   17.1050662186  13.9150107733  18.0115460092
O   16.7456709810  16.1414860275  16.1225409620
H   17.7490488445  16.1812569704  15.9955207399
H   16.5658902487  17.0826674090  16.2547921617
O   13.2426742502  16.5961485885  16.6971834988
H   12.6323507789  16.8265307628  15.9722060905
H   13.4638298895  17.5285209670  16.9830038265
O   16.9704256385  13.6974812623  14.2384527493
H   16.7570186820  12.7730209387  14.3997625414
H   17.9009729414  13.8103295751  14.4546680755
O   15.1138009572  15.1653299493  12.5428160691
H   14.9582012737  14.2091193905  12.3445605981
H   14.4274656788  15.5969839247  11.9980403045
O   12.8190965968  13.9785131198  14.4762318977
H   12.3105159193  13.8197120796  13.6223872359
H   12.3601366771  13.4364416072  15.1808085512
Na  15.0000000000  15.0000000000  15.0000000000
 25
 i =    14500, time =     7250.000, E =     -1700.8755012269                                        
O   14.4689297120  13.0142746135  17.0957547476
H   15.0087767856  12.2090821716  16.8122970119
H   15.0832901328  13.7009999556  17.4524087439
O   11.8635932870  15.8691412964  14.2882675298
H   12.2819522880  15.0737316529  13.8627995124
H   10.9364714779  15.6987644677  14.4067807609
O   16.2188894822  15.1681922363  17.9030002383
H   16.2793937702  15.8484223297  17.1765969961
H   17.0723933682  14.6743809656  17.8023451423
O   16.6416467431  16.8350400905  15.7760016550
H   17.5874372346  16.9154864573  15.7159745577
H   16.4266262041  17.7566114842  16.1047918263
O   13.4094243796  16.5732533420  16.5991081125
H   12.7612444465  16.5811815737  15.8019486655
H   13.5185264716  17.4694603979  16.9158987719
O   17.0104803866  13.2046817848  14.3574618252
H   16.7874917952  12.4262230637  13.7435642955
H   17.9795743907  13.3794498823  14.3124511674
O   15.3470854560  14.9644574509  12.2190368829
H   14.8324391124  14.3632272763  11.5851996653
H   14.8155291043  15.7498430336  12.1747979668
O   12.9733074524  13.6237364652  13.7641172422
H   12.7496069268  13.1201577459  12.9282851381
H   12.4806355053  13.1479339247  14.4981767058
Na  15.0000000000  15.0000000000  15.0000000000
 25
 i =    15000, time =     7500.000, E =     -1700.8526135373                                        
O   14.8720337443  13.0696297737  17.4868478921
H   15.6729436975  12.7234067406  17.0726208373
H   15.2198418965  13.7770308842  18.1111623965
O   16.5154999311  16.8417994853  15.2945264226
H   17.1819009645  17.0847355373  16.0213215408
H   16.0485902615  17.6650050984  15.1616466500
O   13.6225021963  16.2370728292  16.4317259454
H   12.6862674405  16.4086855465  16.1643883756
H   13.8020155380  17.1546323098  16.8316691086
O   17.0092805603  13.6091249337  15.3404214834
H   16.8082844243  12.7480803617  14.9239497310
H   17.9565843649  13.7760360757  15.0023757160
O   12.9252228354  17.4196462272  13.1183054078
H   12.1613798913  17.6400987459  12.5313989906
H   12.4554569930  17.1420863682  13.9517184823
O   14.8335053273  15.5914852762  12.5337620912
H   14.4371316064  14.8049402387  12.0281946279
H   14.1585698848  16.3070749092  12.5782986186
O   13.1115133021  13.3406076482  14.2797925895
H   12.8171555116  13.0897696118  13.3650313529
H   12.4438592430  13.1144792603  14.9374330634
O   15.7026467266  11.6615016848  13.7437809401
H   14.9062608998  12.0411336797  13.3717341612
H   15.7854000820  10.8319799983  13.1730263633
Na  15.0000000000  15.0000000000  15.0000000000
 25
 i =    15500, time =     7750.000, E =     -1700.8405434712                                        
O   14.9316475568  13.5339705974  17.1347424835
H   15.6051088087  12.8028652054  16.9685088371
H   15.3238207508  14.2079855903  17.7440214139
O   16.4838907244  16.5376660532  15.8107561366
H   17.2103002320  16.1609150901  16.4121550983
H   16.2179359462  17.4070505756  16.2050014699
O   13.0859791122  15.7780591709  16.5772936146
H   12.2055472230  15.7555551660  16.2135054705
H   13.2282678240  16.6908697754  16.9062943597
O   16.7899874856  13.6327116470  13.8737364212
H   16.3325665462  12.9932360103  13.3341493743
H   17.7063248590  13.3055213599  14.0094229029
O   12.8895981784  17.1199286492  13.3927683327
H   12.1741567385  17.2703214153  12.6866924926
H   12.3980764851  16.9010193163  14.2033164527
O   15.0739259570  15.7046280087  12.4546958734
H   14.7346102413  15.1287008884  11.7898779495
H   14.3615601461  16.3447267964  12.5221255638
O   13.2071078301  13.3408567852  14.3269627283
H   12.5732620656  13.3064982075  13.5938564645
H   12.6683599683  13.2073929528  15.1466634746
O   14.8915891444  11.2226995750  14.2672685699
H   14.2119381581  11.9769175965  14.3176375738
H   14.5599058926  10.6523693720  13.5555928773
Na  15.0000000000  15.0000000000  15.0000000000
 25
 i =    16000, time =     8000.000, E =     -1700.8836367060                                        
O   15.3290748342  13.4696884932  17.7487919604
H   15.8724891867  12.8533766757  17.2655428979
H   15.7728124363  13.7112315816  18.5585726997
O   16.5305793878  16.7108943257  16.0792275627
H   17.2928448585  16.2878690318  16.5607032863
H   16.3498969381  17.4457346999  16.7261717516
O   12.6241259745  12.9177435109  17.0406432799
H   11.9100356335  13.5389563382  17.1261425890
H   13.4665764991  13.4467616943  17.3503882812
O   13.5073056828  16.3447493761  16.4986453489
H   12.6801114326  15.9426686961  16.1857570189
H   13.2445806474  17.1899112507  16.9563888664
O   17.1415505491  13.7642499166  14.7449063073
H   17.0454544051  13.4099021335  13.8525639177
H   18.0866098781  13.9684898085  14.8294522317
O   15.0764478249  14.7948364882  12.5247650872
H   15.5056626117  13.9452636754  12.1599319006
H   14.2360836178  14.9042244585  11.9796332989
O   13.2153167940  13.1669179214  14.3545369137
H   12.3987582482  13.2761983068  13.8156731913
H   12.8128109191  13.0486566929  15.2353138127
O   15.0830979460  11.3142174993  13.9427525073
H   14.3049337255  11.9006340180  13.8959763434
H   14.6992122093  10.5210802642  13.4548981478
Na  15.0000000000  15.0000000000  15.0000000000
 25
 i =    16500, time =     8250.000, E =     -1700.8728994131                                        
O   15.1010067170  13.2994320592  17.3876211310
H   15.6812036456  12.5320649220  17.2554937758
H   15.5742791903  13.8595020551  17.9830419352
O   16.1254144734  16.9970918799  15.8015253386
H   17.0779567479  16.7396647107  16.0084067455
H   15.8900713216  17.6521915069  16.4364295157
O   12.3590860030  12.6686525486  16.7692517036
H   11.5627678028  13.1971116675  17.0905502097
H   13.1606505539  12.9578041577  17.1759762072
O   13.1748525519  16.2021939571  16.5266373033
H   12.2788215566  16.4329458349  16.1992112706
H   13.3088449136  16.5998888489  17.4534548396
O   16.9507827649  14.1271759844  14.4122225647
H   16.8016763986  13.2188000142  14.1189149918
H   17.9626013297  14.2057665608  14.5176342382
O   15.9802536921  15.9428331527  12.4035857015
H   15.8853415901  14.9400962918  12.3178225104
H   15.2930150562  16.3942064665  11.9018037825
O   13.4285310659  13.1246112465  14.1184359868
H   12.7575724228  13.1356186906  13.4868141105
H   12.9870923781  12.8237172833  14.9487162117
O   15.7806063056  11.5105607016  13.8109484057
H   15.0112335934  11.9836004654  14.1714499923
H   15.4635040493  10.6774950473  13.4033192677
Na  15.0000000000  15.0000000000  15.0000000000
 25
 i =    17000, time =     8500.000, E =     -1700.8590949532                                        
O   15.1833192687  13.5253965759  17.4314306603
H   15.9005135485  12.9215543239  17.1282845558
H   15.7477820437  14.1998704089  17.9078706710
O   16.6969427482  16.8390400206  15.9087625689
H   17.5445090477  16.5140905327  16.2376189214
H   16.3401631463  17.2802778945  16.6776371266
O   13.4835336404  16.3457380126  16.4437579227
H   12.5808916231  16.4565909782  16.0427511620
H   13.7745702063  17.2837929847  16.5576267656
O   17.0602046625  13.4461670438  14.5952623465
H   16.9235924785  13.0946789191  13.7126072969
H   17.9997591922  13.7120613761  14.5120450355
O   15.8659639318  15.7223261569  12.6822994360
H   15.7701113249  14.7857468441  12.3834715733
H   15.1425305771  16.1412593004  12.1548313407
O   12.7737526626  13.7377465038  14.3071226031
H   12.2940556953  13.2337909881  13.6508010018
H   12.5022777764  13.3779505007  15.1762689399
O   15.4441313949  18.5298172350  13.7826069794
H   14.5050933807  18.2607520093  13.5813575368
H   15.8436118263  17.7475573417  14.2814024656
O   15.0261598879  13.1319440177  11.7703542899
H   14.9579135163  12.5145549446  12.4537351917
H   15.6009141283  12.7033567968  11.1290854930