      25
 i =        1, time =     3000.000, E =      -152.5613465267
  O         0.0046466630        0.0043868639        0.0098688549
  H        -0.0009488922        0.0002465474       -0.0048971075
  H        -0.0039456759       -0.0043213201       -0.0048987349
  O        -0.0192247916       -0.0129453098       -0.0085104991
  H         0.0037113156        0.0088437582        0.0068624694
  H         0.0175406939        0.0062632795        0.0028876153
  O        -0.0206720256       -0.0570680557       -0.0097148921
  H        -0.0056709884        0.0110506620       -0.0026567583
  H         0.0252107679        0.0500337121        0.0134451809
  O        -0.0016962061       -0.0125270319       -0.0150644854
  H        -0.0182390271       -0.0086811052       -0.0088944338
  H         0.0160874602        0.0260526429        0.0288123714
  O         0.0340134575       -0.0456589256        0.0195413625
  H         0.0103379748        0.0032539654        0.0077894505
  H        -0.0286200509        0.0431155085       -0.0274815964
  O         0.0038535160       -0.0030083720       -0.0418199231
  H        -0.0014859738        0.0145488089        0.0210912390
  H        -0.0031081781       -0.0113135457        0.0227748419
  O         0.0574237813       -0.0500973410        0.0173731443
  H        -0.0287735811        0.0277535404       -0.0290737642
  H        -0.0277691710        0.0184157090        0.0141729270
  O        -0.0125392527       -0.0143748638        0.0081335778
  H         0.0026680564       -0.0014237997        0.0009615624
  H         0.0105393832        0.0174942117       -0.0111799721
 Cl        -0.0143766886       -0.0109162809       -0.0106840604
      25
 i =     6601, time =     3300.500, E =      -152.5600533598
  O        -0.0287278042        0.0358937066        0.0197890461
  H         0.0261048240       -0.0255178516       -0.0023864040
  H        -0.0001559153       -0.0089523851       -0.0157026134
  O         0.0372598972        0.0029341178       -0.0199319159
  H        -0.0099148719        0.0085164345        0.0196220574
  H        -0.0254584484       -0.0076848967        0.0018026193
  O         0.0062741120       -0.0349418497        0.0032379321
  H        -0.0076137256        0.0080779849       -0.0081123651
  H         0.0010353704        0.0258738328        0.0074055534
  O         0.0233813723       -0.0163108606       -0.0127610848
  H        -0.0040957318        0.0112985583        0.0106568383
  H        -0.0204107943        0.0087116170        0.0042159081
  O         0.0075878962       -0.0174636473        0.0428063015
  H        -0.0040926484       -0.0062620398        0.0020381131
  H        -0.0064197060        0.0235712474       -0.0477507259
  O         0.0043697548       -0.0313417688       -0.0467882991
  H        -0.0045130713        0.0311234947        0.0363193307
  H         0.0004261526        0.0001249601        0.0111205759
  O         0.0027839975       -0.0195794538        0.0305402936
  H        -0.0042507911       -0.0044275358       -0.0048887155
  H         0.0021628749        0.0241281591       -0.0269631937
  O        -0.0020824963       -0.0074545411        0.0172383151
  H        -0.0003470805        0.0076320310       -0.0248790919
  H         0.0014304245        0.0019277230        0.0086466594
 Cl         0.0042429175       -0.0107315782       -0.0053314840
      25
 i =     7202, time =     3601.000, E =      -152.5655939611
  O         0.0392593120       -0.0025158902        0.0358361519
  H        -0.0297982739        0.0298282461        0.0044473327
  H        -0.0052763719       -0.0221184496       -0.0384793494
  O         0.0110616639       -0.0151202401        0.0068048513
  H         0.0105438441        0.0283483045        0.0106144121
  H        -0.0207818205       -0.0142096233       -0.0190127762
  O        -0.0153893259        0.0008846827       -0.0021939226
  H         0.0135655731        0.0072908195        0.0056359018
  H         0.0010877616       -0.0084358823       -0.0007055365
  O        -0.0159611885        0.0022752891        0.0115688030
  H        -0.0061491329        0.0016328203       -0.0238418194
  H         0.0220780618       -0.0036290232        0.0085524860
  O        -0.0084958994       -0.0173028572        0.0140640079
  H         0.0133180695       -0.0122612562        0.0038950693
  H        -0.0040769112        0.0264701826       -0.0190552578
  O        -0.0194066143       -0.0283662384        0.0105075288
  H         0.0154106113        0.0161493585        0.0200309988
  H         0.0046382839        0.0133728532       -0.0288841490
  O        -0.0078943741       -0.0168615103        0.0039207282
  H        -0.0029442909        0.0017973891        0.0072007016
  H         0.0079032959        0.0154530548       -0.0118199414
  O        -0.0045243776       -0.0014522125        0.0060319320
  H        -0.0076587526       -0.0136954011        0.0024604933
  H         0.0158372018        0.0183751715       -0.0093245695
 Cl        -0.0077907255       -0.0065430328        0.0017291289
      25
 i =     7803, time =     3901.500, E =      -152.5633776910
  O        -0.0049746945        0.0077523916        0.0187030614
  H         0.0024642253        0.0027071739        0.0062950186
  H         0.0020587004       -0.0091091561       -0.0230469802
  O         0.0049253194       -0.0185858123       -0.0101772809
  H         0.0024960051        0.0234598146        0.0183983051
  H        -0.0059212776       -0.0050109119       -0.0062611755
  O        -0.0093911369       -0.0358048262        0.0151553368
  H        -0.0086324431       -0.0120504495       -0.0004674901
  H         0.0171870762        0.0480495257       -0.0151655354
  O         0.0454569661        0.0305296824        0.0114218398
  H        -0.0417134176       -0.0256265751       -0.0076747486
  H        -0.0036723216        0.0020162800        0.0016048734
  O        -0.0140731628       -0.0154446221        0.0080305014
  H         0.0297689211       -0.0167399963        0.0266423165
  H        -0.0165988786        0.0326913376       -0.0343413825
  O         0.0017793286       -0.0150924086        0.0241353005
  H        -0.0022724184       -0.0053085739        0.0000211091
  H         0.0001587553        0.0212860451       -0.0213553459
  O         0.0037718708       -0.0053383334       -0.0045927205
  H         0.0056429641        0.0009223227        0.0029090677
  H        -0.0106772493        0.0015313589        0.0025818394
  O        -0.0230329082       -0.0146851026       -0.0203387041
  H         0.0197044883        0.0001291677        0.0271268054
  H         0.0040223787        0.0140430423       -0.0085900343
 Cl         0.0020100906       -0.0064344258       -0.0112610378
      25
 i =     8404, time =     4202.000, E =      -152.5634190819
  O        -0.0099907776       -0.0069301356       -0.0122464768
  H         0.0083515077        0.0053880243       -0.0012415318
  H         0.0038067728        0.0010168450        0.0137459101
  O         0.0351214204       -0.0275189844        0.0081167609
  H        -0.0072945704        0.0219548631        0.0145039105
  H        -0.0267641412        0.0067780499       -0.0197271746
  O         0.0215480342        0.0323737402        0.0595914015
  H        -0.0022722660       -0.0042606791       -0.0063365822
  H        -0.0160116534       -0.0298087286       -0.0528129958
  O        -0.0036762047        0.0106298560       -0.0200379130
  H         0.0069241771       -0.0077924565        0.0046818303
  H        -0.0038440759        0.0007286680        0.0191635864
  O        -0.0085400112        0.0040138106        0.0073866128
  H        -0.0000651664       -0.0061004916       -0.0082259236
  H         0.0047897780        0.0073661754        0.0005041260
  O        -0.0251916152       -0.0200644450       -0.0069203433
  H         0.0242855762        0.0256712875        0.0222448596
  H        -0.0001264911       -0.0050889361       -0.0141134440
  O        -0.0198816746       -0.0250627961        0.0266566257
  H         0.0146259487        0.0270548962        0.0207041150
  H         0.0038493813       -0.0021631142       -0.0459790692
  O         0.0153042247       -0.0224090466        0.0301982770
  H         0.0020114675        0.0173531256       -0.0107890270
  H        -0.0162549348       -0.0023720072       -0.0188944506
 Cl        -0.0006643911       -0.0004477976       -0.0100910984
      25
 i =     9005, time =     4502.500, E =      -152.5481845089
  O         0.0083146642        0.0328541318        0.0166741377
  H        -0.0000955684        0.0159208251       -0.0031216463
  H        -0.0108583332       -0.0384712190       -0.0175017421
  O        -0.0291975986       -0.0012724810        0.0211022151
  H         0.0028178176       -0.0096642270       -0.0148378213
  H         0.0267372671        0.0101623820       -0.0071572884
  O        -0.0026879366       -0.0094871707       -0.0126189440
  H        -0.0036931274        0.0091079817        0.0102096080
  H         0.0064976279        0.0012203963        0.0076214534
  O        -0.0294523427       -0.0388966345        0.0199713229
  H         0.0314142167        0.0340579447       -0.0228471521
  H        -0.0031204380        0.0045890884        0.0053089790
  O         0.0187629970       -0.0248251022        0.0015797608
  H        -0.0121406467       -0.0038082186       -0.0043905365
  H        -0.0073383205        0.0300036048        0.0002440257
  O         0.0143303157        0.0205118338        0.0387809870
  H         0.0100678859       -0.0061042248        0.0008640052
  H        -0.0264413544       -0.0180507464       -0.0399216133
  O        -0.0131842357        0.0001142400       -0.0221457650
  H         0.0115058478       -0.0079484594        0.0246142896
  H         0.0023518488        0.0074481589       -0.0004387641
  O         0.0201667682        0.0022911791       -0.0148862327
  H        -0.0045454844       -0.0009787676        0.0062613280
  H        -0.0155392019        0.0018524961        0.0063825633
 Cl         0.0048547789       -0.0113406181       -0.0004080423
      25
 i =     9606, time =     4803.000, E =      -152.5516898831
  O        -0.0164726604       -0.0058773465        0.0563992441
  H        -0.0108654111        0.0309698158       -0.0230461673
  H         0.0263634249       -0.0233764213       -0.0349869253
  O         0.0110029023        0.0014963256        0.0022022347
  H         0.0159293848        0.0039202359        0.0079892513
  H        -0.0276502794       -0.0020714860       -0.0110716985
  O         0.0157800780        0.0353414182       -0.0087124728
  H         0.0055440478        0.0024577146        0.0088938532
  H        -0.0190782267       -0.0366830723       -0.0020664602
  O         0.0190910758       -0.0123836144        0.0007966459
  H        -0.0185560575       -0.0036732724        0.0032425820
  H        -0.0022386109        0.0168437835       -0.0061855578
  O        -0.0198318325       -0.0111113776        0.0182326091
  H         0.0134812484        0.0275554312        0.0136840644
  H         0.0061641079       -0.0136269449       -0.0317002039
  O         0.0085828410       -0.0121569098        0.0067387714
  H        -0.0093230343        0.0067865203        0.0007472757
  H         0.0025595663        0.0031179718       -0.0090668038
  O         0.0183826906        0.0085980127        0.0195950823
  H         0.0016449061        0.0021666554        0.0036881150
  H        -0.0196273139       -0.0121714684       -0.0172934022
  O         0.0120048538        0.0134864543       -0.0139691571
  H         0.0070833318        0.0066925473       -0.0098403998
  H        -0.0193835565       -0.0222398768        0.0224328499
 Cl         0.0001585404       -0.0036230028        0.0020903888
      25
 i =    10207, time =     5103.500, E =      -152.5424231951
  O        -0.0166089181        0.0458234193        0.0024966955
  H         0.0060584111       -0.0234530662        0.0091470727
  H         0.0091763814       -0.0169555534       -0.0146990523
  O         0.0216897276       -0.0304409417       -0.0154181609
  H         0.0069494045        0.0447221660        0.0155079006
  H        -0.0330588170       -0.0139856708       -0.0018395171
  O         0.0143444684       -0.0465857508        0.0237261764
  H        -0.0220255096        0.0606141743        0.0044055381
  H         0.0057984734       -0.0150810281       -0.0200651647
  O        -0.0074566784       -0.0149362236       -0.0016307832
  H        -0.0025748417       -0.0009501935        0.0024941799
  H         0.0107465153        0.0189090153       -0.0015658059
  O         0.0012224067       -0.0186028016       -0.0063151933
  H        -0.0061266302       -0.0032756804       -0.0047006766
  H         0.0059011625        0.0215157732        0.0107668688
  O        -0.0008829839       -0.0085941552        0.0132319907
  H         0.0020475864        0.0158134487        0.0147421458
  H         0.0028712009       -0.0040965469       -0.0344595812
  O        -0.0566797843       -0.0081422806       -0.0286010616
  H         0.0409716817       -0.0038599194        0.0357270516
  H         0.0154673714        0.0124395248       -0.0031044084
  O         0.0203580044        0.0095552345       -0.0136861185
  H        -0.0109800554        0.0035013209        0.0353566402
  H        -0.0122689594       -0.0138439521       -0.0205558046
 Cl         0.0050713018       -0.0106491776       -0.0012699459
      25
 i =    10808, time =     5404.000, E =      -152.5605579364
  O        -0.0252164980       -0.0266808679        0.0349473289
  H         0.0165184566        0.0372871996       -0.0124795867
  H         0.0119378482       -0.0076093646       -0.0230355814
  O        -0.0076455983       -0.0126326344        0.0079961932
  H        -0.0011121332       -0.0031851847       -0.0024333721
  H         0.0064790729        0.0207059239       -0.0185992486
  O        -0.0193884592       -0.0044668770       -0.0135079239
  H         0.0199909165        0.0091042589        0.0219195091
  H        -0.0019298827       -0.0063305172       -0.0009485990
  O        -0.0255889738       -0.0660382581       -0.0106769513
  H         0.0196658236        0.0576144833        0.0148436032
  H         0.0059926084        0.0083085765       -0.0027257090
  O         0.0409829766       -0.0015509056       -0.0169552324
  H         0.0004260112        0.0086543564       -0.0016403592
  H        -0.0416966574       -0.0030743255        0.0174949408
  O        -0.0102643135        0.0018471286       -0.0154613880
  H         0.0098464926       -0.0069114308        0.0038769202
  H        -0.0007662802        0.0049614383        0.0095121570
  O        -0.0331738776        0.0215403052       -0.0254411786
  H         0.0080893172       -0.0361411485        0.0593266926
  H         0.0218906484        0.0141637124       -0.0310835665
  O         0.0267239801       -0.0252136199        0.0004204450
  H        -0.0036939196        0.0148077286       -0.0034636587
  H        -0.0252607727        0.0101596395        0.0037427180
 Cl         0.0065006966       -0.0083588542        0.0042296839
      25
 i =    11409, time =     5704.500, E =      -152.5641130984
  O         0.0028677414       -0.0030642065        0.0277826584
  H        -0.0040255983        0.0141012086       -0.0046240183
  H         0.0015745612       -0.0126875561       -0.0204368938
  O        -0.0185861039       -0.0363085124        0.0133523499
  H         0.0130836761        0.0125813509       -0.0016706102
  H         0.0042737225        0.0307477500       -0.0187927042
  O        -0.0021116296       -0.0047408644       -0.0045997455
  H        -0.0049040218        0.0022633911        0.0111835349
  H         0.0049787024        0.0022286063       -0.0047576978
  O         0.0337174932        0.0126803059        0.0164927128
  H         0.0106204984       -0.0006365734       -0.0011318892
  H        -0.0338908734       -0.0192061666       -0.0123885067
  O         0.0714148413       -0.0049488338        0.0046363690
  H         0.0076830441        0.0049064716        0.0000896061
  H        -0.0808250803        0.0010218886       -0.0056389368
  O         0.0212780697       -0.0259886004       -0.0029045543
  H        -0.0247368048        0.0052470866       -0.0294734300
  H         0.0025957214        0.0216401704        0.0319105862
  O        -0.0363246221       -0.0034896287       -0.0046889697
  H         0.0031064803       -0.0039374438        0.0297064181
  H         0.0350711030        0.0062876706       -0.0254217765
  O         0.0312129325       -0.0034793953        0.0263733276
  H         0.0109036078       -0.0260004486        0.0083608165
  H        -0.0428617591        0.0313099240       -0.0312638780
 Cl        -0.0060049148       -0.0016976543       -0.0018875453
      25
 i =    12010, time =     6005.000, E =      -152.5593116784
  O         0.0075721838        0.0026913730        0.0559121808
  H        -0.0154419125        0.0210804553        0.0045541556
  H         0.0091149619       -0.0261871920       -0.0595733799
  O         0.0256590686       -0.0230333388        0.0001380320
  H         0.0140652919        0.0194066276        0.0082100330
  H        -0.0356087175        0.0055256153       -0.0060393696
  O         0.0047576273       -0.0019776652       -0.0061131069
  H        -0.0034324119        0.0035603597        0.0026932350
  H        -0.0010657163       -0.0034395654        0.0033730584
  O        -0.0163013297        0.0018495509        0.0089512723
  H         0.0114544005       -0.0083477660       -0.0117282710
  H         0.0060624812        0.0031769921        0.0011669460
  O         0.0026285393        0.0007289618        0.0053761244
  H        -0.0019611337       -0.0047073917       -0.0175966976
  H        -0.0034156913        0.0077812827        0.0098611733
  O         0.0282717958       -0.0124993863       -0.0120262181
  H         0.0002615119        0.0047254516       -0.0000804664
  H        -0.0294865751        0.0078902849        0.0122509500
  O        -0.0249722022        0.0180921823       -0.0195806680
  H         0.0247009968       -0.0210835851        0.0210617200
  H         0.0017707217        0.0035552346       -0.0009816607
  O        -0.0391898413        0.0012511129       -0.0195576549
  H         0.0320629022       -0.0014523395        0.0209999912
  H         0.0101904253        0.0012631346       -0.0045005683
 Cl        -0.0072902011       -0.0001877631        0.0031032075
      25
 i =    12611, time =     6305.500, E =      -152.5599680967
  O        -0.0055436621       -0.0084268079        0.0125817636
  H         0.0012623449        0.0295048203        0.0051974415
  H         0.0060250031       -0.0222371288       -0.0173315886
  O        -0.0028507939       -0.0266776978        0.0051443698
  H         0.0018144830        0.0062237290       -0.0004247677
  H         0.0011070690        0.0189455229       -0.0014032307
  O         0.0012709114       -0.0122999193       -0.0036566883
  H         0.0025950250        0.0072997258        0.0018487525
  H        -0.0110465609        0.0056236345        0.0006132872
  O         0.0313423714       -0.0274232348        0.0345911056
  H        -0.0248631515        0.0280863779       -0.0276879430
  H        -0.0070941487       -0.0023010280       -0.0075651800
  O         0.0175715767        0.0053242391        0.0104502712
  H        -0.0047845875       -0.0080072320       -0.0140336924
  H        -0.0124379247       -0.0013395774       -0.0018341217
  O        -0.0071662724        0.0007194742        0.0356544624
  H         0.0071089117       -0.0021092465       -0.0547876657
  H         0.0000038786       -0.0009778563        0.0165542187
  O        -0.0516198289        0.0176888878       -0.0272906903
  H         0.0495740436       -0.0217990322        0.0401970128
  H         0.0022224360        0.0030414375       -0.0112632326
  O        -0.0269296507        0.0089185419       -0.0269143328
  H         0.0224992029       -0.0051746868        0.0235248259
  H         0.0060584763       -0.0059298800        0.0008151546
 Cl         0.0036284543        0.0126214296        0.0064799115
      25
 i =    13212, time =     6606.000, E =      -152.5712452054
  O        -0.0004931236       -0.0172797568        0.0491310867
  H        -0.0063502048        0.0169590247       -0.0145703362
  H         0.0068753012        0.0008670888       -0.0366417385
  O        -0.0109119475       -0.0051261325       -0.0007871566
  H         0.0088426608        0.0095641457        0.0070416715
  H         0.0001437249        0.0107755677       -0.0200750906
  O        -0.0090701999       -0.0313344416       -0.0055415499
  H         0.0117397361        0.0380205914        0.0123651237
  H        -0.0037137770       -0.0055169044       -0.0091545672
  O        -0.0168449147       -0.0400613682        0.0033954752
  H         0.0195406462        0.0350969992        0.0121293533
  H         0.0031815167       -0.0085208256        0.0016603991
  O         0.0135041938        0.0100279331       -0.0065279640
  H         0.0072323963       -0.0095761881        0.0076312045
  H        -0.0213612644        0.0006876220        0.0027486083
  O         0.0108146631       -0.0122819501        0.0199150339
  H        -0.0089458750        0.0089375141       -0.0312744119
  H        -0.0027711548        0.0038384262        0.0077712734
  O        -0.0024789365        0.0186725994       -0.0353842780
  H         0.0142632195       -0.0176609897        0.0204732970
  H        -0.0116963169       -0.0007113927        0.0176743557
  O        -0.0420268062        0.0025976178       -0.0015091032
  H         0.0442324796       -0.0030104525        0.0087886723
  H        -0.0031250571        0.0002920062       -0.0090249604
 Cl        -0.0004672441       -0.0050003710       -0.0003729183
      25
 i =    13801, time =     6900.500, E =      -152.5396211651
  O        -0.0210152679        0.0237209718        0.0187202747
  H        -0.0018118979       -0.0031396885        0.0085048430
  H         0.0215195461       -0.0137792139       -0.0283564107
  O        -0.0362398626       -0.0589247837       -0.0180421822
  H         0.0301485581        0.0619767419        0.0147949815
  H         0.0032087521       -0.0016649561        0.0057758558
  O         0.0295043885       -0.0131738955       -0.0159855880
  H        -0.0104393479       -0.0133748944        0.0149499704
  H        -0.0198932563        0.0262630525        0.0021589381
  O        -0.0047699364        0.0231396142        0.0065140962
  H         0.0129038742       -0.0286042484       -0.0060888588
  H        -0.0080311934        0.0017829609        0.0010074200
  O         0.0120486654        0.0085147349        0.0352293043
  H        -0.0035382068        0.0062099597       -0.0243628254
  H        -0.0099749592       -0.0154177266       -0.0129876791
  O        -0.0036073913        0.0135287013       -0.0541006169
  H         0.0199290705       -0.0042941344        0.0383202488
  H        -0.0149352708       -0.0082412306        0.0173088890
  O         0.0242031932       -0.0349515164        0.0085298202
  H         0.0085004808        0.0197693066        0.0142322658
  H        -0.0341399886        0.0168385517       -0.0244907942
  O        -0.0628171630        0.0004416849       -0.0188447380
  H         0.0595045491       -0.0030110169        0.0125578532
  H        -0.0003861255        0.0019890827        0.0165769006
 Cl         0.0096549156       -0.0049356902       -0.0098280083
      25
 i =    14402, time =     7201.000, E =      -152.5730809956
  O         0.0101593556       -0.0267300492       -0.0078241646
  H        -0.0131158187        0.0326255660        0.0113922601
  H         0.0057878594       -0.0103216596       -0.0033984029
  O         0.0491401588        0.0302523422       -0.0058493007
  H        -0.0483367825       -0.0358015757        0.0196004658
  H         0.0001649080        0.0060470826       -0.0176343533
  O         0.0179156380       -0.0107729028        0.0162581521
  H         0.0111540431        0.0021082974        0.0064710207
  H        -0.0291140366        0.0089251569       -0.0181455439
  O        -0.0128853406        0.0302752327        0.0003682294
  H         0.0225793156       -0.0350957268        0.0030619010
  H        -0.0100165576        0.0050556496       -0.0013280826
  O         0.0025798806        0.0072218849        0.0182570378
  H         0.0008361894       -0.0101020755       -0.0246028361
  H        -0.0027757060        0.0018921581        0.0061077187
  O         0.0017150626        0.0014322602       -0.0082088648
  H        -0.0011229913       -0.0002251861        0.0001640541
  H        -0.0010988693       -0.0001967250        0.0093843734
  O        -0.0525630527       -0.0048780426       -0.0374815268
  H         0.0601837671        0.0037691670        0.0267363517
  H        -0.0088831638        0.0016337715        0.0111770895
  O        -0.0320085031        0.0173150377        0.0292695784
  H         0.0186167284       -0.0243675981       -0.0301130780
  H         0.0147910458        0.0075147403       -0.0002417482
 Cl        -0.0038465725        0.0018147702       -0.0039198015
      25
 i =    15003, time =     7501.500, E =      -152.5652322719
  O         0.0124169704       -0.0169895590        0.0048051139
  H        -0.0071419246        0.0138545997        0.0003208757
  H        -0.0026440626        0.0003310735       -0.0044460388
  O         0.0166190424        0.0006638608        0.0064647827
  H        -0.0205856762       -0.0254534155        0.0110350865
  H         0.0046543970        0.0245767797       -0.0148963469
  O        -0.0060572302       -0.0376208997        0.0239278559
  H         0.0191339154        0.0294497314        0.0093670055
  H        -0.0125716472        0.0097902500       -0.0334391338
  O        -0.0351730708        0.0156585357        0.0028817045
  H         0.0191842301       -0.0207564538       -0.0079536499
  H         0.0159027141        0.0068849332        0.0034564351
  O         0.0253302832        0.0074865517        0.0237407816
  H        -0.0102021976       -0.0027914952       -0.0204671010
  H        -0.0099367021       -0.0032797668       -0.0029127914
  O        -0.0305864548        0.0011237000       -0.0448654036
  H         0.0222381328       -0.0045586399        0.0522223296
  H         0.0036140192        0.0000247867       -0.0049223802
  O        -0.0093236929       -0.0056100109        0.0038315894
  H         0.0061725788        0.0045692593        0.0027058851
  H         0.0004117849        0.0014767934       -0.0061653617
  O        -0.0102294972        0.0275050317        0.0196741075
  H         0.0134009210       -0.0117588410       -0.0132573690
  H         0.0015228682       -0.0122912252       -0.0044432931
 Cl        -0.0068745729       -0.0017455018       -0.0065709060
      25
 i =    15604, time =     7802.000, E =      -152.5496825151
  O         0.0006064741        0.0085916396       -0.0019859382
  H         0.0014095431        0.0029265476        0.0049330421
  H        -0.0005616485       -0.0112264830       -0.0050342724
  O         0.0169858158        0.0320085415       -0.0051259745
  H        -0.0289403632       -0.0450248947        0.0113806730
  H         0.0123057271        0.0148327221       -0.0086719476
  O        -0.0095821467       -0.0313796818        0.0021089715
  H         0.0026489733        0.0129436681        0.0023147403
  H         0.0046216311        0.0154117668       -0.0065595831
  O        -0.0205219472       -0.0119171738        0.0125815523
  H         0.0082944267        0.0053736700        0.0131057782
  H         0.0059078104        0.0083491121       -0.0241713664
  O         0.0464490218       -0.0095818448        0.0182964043
  H        -0.0150140968        0.0188563523        0.0048913727
  H        -0.0266997463       -0.0094914006       -0.0237375514
  O        -0.0342523350       -0.0183732800        0.0332705040
  H         0.0222219533        0.0026901438       -0.0293916691
  H         0.0149444484        0.0200758630       -0.0027835605
  O         0.0158461554       -0.0031455403       -0.0267883457
  H        -0.0019821325       -0.0055147065        0.0252095710
  H        -0.0159398008        0.0102741112        0.0036800003
  O        -0.0026925204       -0.0043836223        0.0401644555
  H         0.0076996037        0.0068683950       -0.0167411720
  H        -0.0021159612        0.0012797170       -0.0224290712
 Cl        -0.0008829661       -0.0108134568        0.0007240270
      25
 i =    16205, time =     8102.500, E =      -152.5388069633
  O        -0.0405267502        0.0119113987        0.0186322814
  H         0.0072548865       -0.0049086991       -0.0028973721
  H         0.0359011667       -0.0071601794       -0.0163349927
  O         0.0070749010        0.0264422198       -0.0300005245
  H        -0.0195215871       -0.0110429174        0.0114002533
  H         0.0087305345       -0.0145084405        0.0148279146
  O        -0.0112363841       -0.0269779340        0.0194506241
  H         0.0133669233        0.0132712874       -0.0123481029
  H        -0.0019313708        0.0181073205       -0.0065780829
  O         0.0005563061       -0.0152510584        0.0300635976
  H        -0.0024360362       -0.0032932964       -0.0038725361
  H        -0.0032230982        0.0144629143       -0.0214995876
  O         0.0089408288        0.0187914090        0.0370329969
  H         0.0311302533       -0.0108976426       -0.0179119538
  H        -0.0356158163       -0.0103324946       -0.0244456845
  O         0.0090504043       -0.0148899642        0.0473796236
  H        -0.0152523539        0.0097990909       -0.0575788813