      27
 i =        1, time =     3000.000, E =      -154.6926296021
  O        -0.0229214972       -0.0031106457       -0.0134291691
  H         0.0095553633        0.0076273911        0.0013625517
  H         0.0129904451       -0.0047160674        0.0113116191
  O        -0.0087525711       -0.0101406566        0.0079707241
  H         0.0248498194       -0.0084142381        0.0051847488
  H        -0.0173368546        0.0174468754       -0.0113755310
  O         0.0030155047        0.0234016972       -0.0314595070
  H         0.0014753023        0.0039018006        0.0150846151
  H        -0.0027985639       -0.0288653644        0.0188228960
  O        -0.0121489322        0.0104768398       -0.0162028236
  H         0.0116963098       -0.0061926916        0.0188847321
  H         0.0007385214       -0.0022117611       -0.0000892775
  O        -0.0309519009        0.0171173518       -0.0564977130
  H        -0.0029595209       -0.0199137623        0.0160019624
  H         0.0345188937        0.0040663698        0.0393772237
  O         0.0222462220       -0.0151415332       -0.0315696318
  H        -0.0228688892        0.0027308290        0.0390671574
  H         0.0009914744        0.0136481557       -0.0068608928
  O         0.0043717880       -0.0179156677        0.0032772760
  H         0.0055338129        0.0158219880        0.0024768655
  H        -0.0065058095        0.0017849990       -0.0087346777
  O        -0.0179112328       -0.0019425709       -0.0068321801
  H         0.0087880145        0.0006138085        0.0166672193
  H         0.0085721830        0.0000024869       -0.0086269961
  O        -0.0225447044        0.0048455142       -0.0053507021
  H         0.0062084956       -0.0051994828        0.0036175752
  H         0.0120454786        0.0005882403       -0.0014068022
      27
 i =     6470, time =     3235.000, E =      -154.7182174506
  O         0.0236468894       -0.0234536393        0.0130732297
  H         0.0003643722        0.0074787693       -0.0024578823
  H        -0.0214421314        0.0159734735       -0.0129442160
  O         0.0022911883       -0.0177245772        0.0063254676
  H         0.0009798668       -0.0000595809        0.0008739897
  H        -0.0044320321        0.0154837207       -0.0064403034
  O         0.0008730308        0.0055774141        0.0039380177
  H         0.0008946752       -0.0024128646       -0.0030610961
  H         0.0002456445       -0.0032539781        0.0003419427
  O         0.0174919468        0.0078853850        0.0456582824
  H        -0.0305662185       -0.0039074361       -0.0144356873
  H         0.0021796196       -0.0041179258       -0.0214912010
  O        -0.0333875818        0.0216722193       -0.0231522834
  H         0.0068367080       -0.0120829569        0.0255889872
  H         0.0239767698       -0.0098530573       -0.0018315942
  O        -0.0028012600       -0.0217990861       -0.0061845125
  H        -0.0076200258       -0.0013553465       -0.0125627954
  H         0.0160260998        0.0204383423        0.0045021864
  O        -0.0028957695       -0.0279537995       -0.0107960626
  H         0.0111745085        0.0186360651        0.0073331854
  H        -0.0078636906        0.0095710767        0.0008638537
  O         0.0182440930        0.0209022976        0.0350750761
  H         0.0013179107       -0.0050967831       -0.0253550535
  H        -0.0130006225       -0.0144448617       -0.0061662829
  O         0.0026709701       -0.0014655797       -0.0045811094
  H        -0.0012885618        0.0009629687        0.0064923557
  H        -0.0036265861        0.0034396674        0.0005483083
      27
 i =     6940, time =     3470.000, E =      -154.7098025318
  O        -0.0039172520       -0.0318931087        0.0162553718
  H         0.0007345367        0.0098449479       -0.0031188034
  H         0.0009216147        0.0215379246       -0.0157682645
  O         0.0069908731        0.0171690027       -0.0047822085
  H        -0.0083201741       -0.0091543549        0.0045352749
  H         0.0054247492       -0.0080335668        0.0020037259
  O        -0.0021867352        0.0099511220       -0.0133571054
  H         0.0035294412       -0.0021161718       -0.0075391437
  H        -0.0025914009       -0.0167435304        0.0213495148
  O        -0.0063431663        0.0098619322        0.0135550050
  H         0.0042342896       -0.0073565622       -0.0108558136
  H         0.0030561813       -0.0031718631       -0.0040123310
  O        -0.0036356728       -0.0173036276        0.0094612469
  H         0.0198868069        0.0330135746       -0.0017549659
  H        -0.0124418961       -0.0167396229       -0.0056733562
  O        -0.0171047090       -0.0200026410        0.0221567555
  H         0.0207971949       -0.0046769473       -0.0236727501
  H        -0.0037499151        0.0250885789        0.0043376195
  O        -0.0253707740        0.0035442857       -0.0093558399
  H         0.0158851252        0.0086136856        0.0106749077
  H         0.0102214219       -0.0105125513       -0.0006416996
  O         0.0034738852       -0.0029093246       -0.0089166911
  H        -0.0036477128        0.0055953317        0.0080640010
  H         0.0013264910        0.0020354038       -0.0039545448
  O        -0.0045827441        0.0184619023       -0.0127908995
  H         0.0009343464        0.0002725298       -0.0040151791
  H        -0.0025787419       -0.0139836264        0.0183738444
      27
 i =     7410, time =     3705.000, E =      -154.7149908499
  O        -0.0166044792       -0.0036738322       -0.0209891538
  H         0.0236392966        0.0034915084        0.0255408815
  H        -0.0040415202        0.0012360569       -0.0055048089
  O         0.0035747877        0.0073542412        0.0021422752
  H         0.0012506061       -0.0021427670       -0.0002204397
  H         0.0003416846       -0.0039319339       -0.0011574849
  O         0.0044207646        0.0135620705       -0.0045408248
  H        -0.0071666545       -0.0017327948        0.0011634904
  H         0.0081653200       -0.0126015125        0.0022804587
  O         0.0020731248        0.0189235898        0.0043169619
  H         0.0016737916       -0.0115078059       -0.0090633298
  H        -0.0049451944       -0.0060820753        0.0093393703
  O         0.0255696551       -0.0204277812        0.0150199485
  H        -0.0012003459        0.0027505639       -0.0097616464
  H        -0.0272569168        0.0220143213       -0.0022089630
  O         0.0187845239        0.0035415045        0.0152625737
  H        -0.0062003177       -0.0006809351       -0.0052971973
  H        -0.0175551576       -0.0039990252       -0.0132808015
  O         0.0176469879       -0.0143370354       -0.0085655750
  H        -0.0014039172        0.0220508897        0.0130608739
  H        -0.0150573041       -0.0121147778       -0.0085472379
  O        -0.0050228804        0.0295134499        0.0208910875
  H         0.0150746222       -0.0178369395       -0.0288523169
  H        -0.0102182316       -0.0104426365        0.0080314617
  O        -0.0313211182        0.0152412755        0.0140027881
  H         0.0164651426       -0.0153719408       -0.0052722676
  H         0.0084006437       -0.0022287560       -0.0074627275
      27
 i =     7880, time =     3940.000, E =      -154.6958539269
  O         0.0069963221       -0.0271740590        0.0072740837
  H        -0.0058271828        0.0067011655        0.0122700841
  H         0.0060650832        0.0093670521       -0.0140990575
  O        -0.0120464589        0.0020700703       -0.0120572093
  H         0.0146855771        0.0044472788        0.0065937732
  H         0.0046558977       -0.0042648980        0.0020697224
  O         0.0208660678       -0.0144248119        0.0059960783
  H        -0.0061719293       -0.0065200973        0.0007965032
  H        -0.0206859708        0.0331291315       -0.0125293380
  O        -0.0012041720        0.0185410219        0.0157817614
  H         0.0024156313       -0.0201825745        0.0023864954
  H         0.0015417380       -0.0009451287       -0.0173227535
  O         0.0306016074       -0.0254602927        0.0136843285
  H        -0.0135396330        0.0105951529       -0.0211736287
  H        -0.0170644168        0.0123727177        0.0069683531
  O         0.0504802388        0.0168848468        0.0098562498
  H        -0.0046021633       -0.0204135064        0.0074915224
  H        -0.0470824048        0.0059614392       -0.0174786481
  O        -0.0114855358       -0.0284597534        0.0175496755
  H         0.0089518245       -0.0035418883       -0.0197321770
  H        -0.0033541369        0.0319503866        0.0029447163
  O         0.0047636474        0.0358689730        0.0149665481
  H         0.0049748037        0.0013854990       -0.0071120458
  H        -0.0114949420       -0.0379762002       -0.0080466212
  O        -0.0184802473        0.0100306538        0.0205968866
  H         0.0105258204       -0.0157853167        0.0001104037
  H         0.0053524281        0.0072159095       -0.0180273053
      27
 i =     8350, time =     4175.000, E =      -154.7055575646
  O        -0.0104055120       -0.0179611177       -0.0058990231
  H        -0.0031492249        0.0149572011        0.0189335481
  H         0.0184979597       -0.0017485007       -0.0153126482
  O         0.0069450762       -0.0300747858       -0.0090911257
  H         0.0100729753        0.0075760139        0.0153051749
  H        -0.0138464101        0.0242178460       -0.0086084972
  O        -0.0009837720       -0.0033690011       -0.0001191368
  H         0.0065184611       -0.0099970951        0.0071207233
  H        -0.0075582488        0.0232103827       -0.0102741371
  O         0.0088088974       -0.0122705050        0.0041404750
  H         0.0032508008        0.0055934449        0.0022416865
  H        -0.0098177946        0.0048841827       -0.0063441339
  O        -0.0230552506        0.0068995815        0.0131494224
  H         0.0003758371        0.0047278917       -0.0181530657
  H         0.0206459879       -0.0091763043        0.0039153054
  O         0.0143105195        0.0198878009        0.0019415656
  H        -0.0244226312       -0.0259732032       -0.0023588564
  H         0.0102384424        0.0120128424        0.0001856230
  O        -0.0057319405       -0.0349394769       -0.0168584020
  H         0.0151160858        0.0139586020        0.0133316174
  H        -0.0112131743        0.0128178258        0.0086156133
  O         0.0293851907       -0.0194943596       -0.0274118603
  H        -0.0067309070        0.0122445063        0.0286858361
  H        -0.0254166656        0.0083829237       -0.0035656391
  O         0.0039707379        0.0021538054        0.0085372243
  H        -0.0058761582       -0.0105906030        0.0001787428
  H         0.0005248056        0.0014482207       -0.0034671656
      27
 i =     8820, time =     4410.000, E =      -154.7057668352
  O         0.0049861650       -0.0036877083       -0.0122613698
  H         0.0006555375        0.0036593095        0.0072652850
  H        -0.0027564905       -0.0012028198       -0.0000597409
  O         0.0176231751       -0.0151198152        0.0371708386
  H        -0.0134130382       -0.0053962264       -0.0277425440
  H        -0.0025747773        0.0227637018       -0.0096999818
  O         0.0031168120        0.0139369016        0.0170410960
  H        -0.0063555177        0.0000824279       -0.0134348871
  H         0.0043723616       -0.0110672906       -0.0006555497
  O        -0.0039623449        0.0003333364       -0.0070779145
  H         0.0038467335       -0.0014738202        0.0035649460
  H        -0.0020432480        0.0014812127        0.0075722285
  O        -0.0197172339        0.0094449253        0.0176394053
  H        -0.0017979484        0.0019203185       -0.0087600792
  H         0.0211317360       -0.0110236765       -0.0067855998
  O        -0.0091180108        0.0462576116       -0.0427833298
  H         0.0029856882       -0.0254055376        0.0221915809
  H         0.0014746464       -0.0137338138        0.0101223897
  O        -0.0028602906       -0.0155819536       -0.0094399489
  H        -0.0025183626       -0.0074080205       -0.0058172184
  H         0.0038573601        0.0213217087        0.0137283518
  O         0.0089872312       -0.0022812138        0.0022162516
  H        -0.0012470156        0.0126126805       -0.0149161377
  H        -0.0071911918       -0.0101257133        0.0122293047
  O         0.0333024045        0.0054865618       -0.0629387483
  H         0.0072518122       -0.0142546151        0.0190734734
  H        -0.0370492975       -0.0016050440        0.0532305292
      27
 i =     9290, time =     4645.000, E =      -154.6988608943
  O        -0.0178138019       -0.0087635040       -0.0103697192
  H        -0.0027946940        0.0314686447        0.0296272174
  H         0.0236052619       -0.0193485374       -0.0287336536
  O         0.0225705064       -0.0277268236       -0.0032892850
  H         0.0112965809       -0.0005830763        0.0193961369
  H        -0.0314991365        0.0284565698       -0.0181069540
  O        -0.0010646434        0.0026386116       -0.0013081311
  H        -0.0010487954       -0.0064990546        0.0016504352
  H         0.0093086785        0.0100632299       -0.0015643749
  O         0.0038206107        0.0113883134        0.0111212988
  H        -0.0077125535       -0.0022988117       -0.0177139168
  H         0.0070154511       -0.0052854530        0.0065171091
  O         0.0034179553       -0.0082038142        0.0166687921
  H         0.0032532240       -0.0025038607       -0.0094693538
  H        -0.0141344853        0.0025447338       -0.0055356858
  O        -0.0098088208        0.0023822540       -0.0083525743
  H        -0.0129066413       -0.0246909308        0.0050775151
  H         0.0204034594        0.0263744547        0.0022753929
  O         0.0099628688       -0.0398866058        0.0132330667
  H        -0.0178921759        0.0102967445       -0.0017576837
  H         0.0075729067        0.0238976127       -0.0079967146
  O         0.0043338818       -0.0135922254       -0.0008717475
  H         0.0061420986        0.0248434600        0.0140769539
  H        -0.0136410926       -0.0148584429       -0.0105243549
  O         0.0086565702        0.0092380453       -0.0037794614
  H        -0.0029394734        0.0018892762       -0.0031348910
  H        -0.0085138362       -0.0128962206        0.0140999159
      27
 i =     9760, time =     4880.000, E =      -154.7001945996
  O         0.0424658531        0.0002571366       -0.0224581876
  H        -0.0043275118       -0.0095378321       -0.0105156536
  H        -0.0308988104        0.0096371301        0.0235407255
  O         0.0144866869       -0.0363330848        0.0128552116
  H         0.0093471062        0.0031133780        0.0202026455
  H        -0.0213124066        0.0350871510       -0.0328830060
  O        -0.0266625149        0.0032851694        0.0027785721
  H         0.0113109459       -0.0087595453        0.0064706255
  H         0.0148849232        0.0047031587       -0.0104405853
  O         0.0033050928        0.0009680637       -0.0374208487
  H         0.0047663023        0.0130621847        0.0299397845
  H        -0.0075327663       -0.0139765800        0.0084550425
  O         0.0280982242        0.0004796696        0.0387869458
  H        -0.0062563785       -0.0057991572       -0.0314121171
  H        -0.0222738980        0.0104521333       -0.0053901355
  O        -0.0066102622        0.0363530626       -0.0201996966
  H         0.0112777723       -0.0271330076        0.0188626762
  H        -0.0044188482       -0.0111914072        0.0004804048
  O        -0.0220536344       -0.0222140255       -0.0279547048
  H         0.0232860030        0.0143509060        0.0361493839
  H        -0.0040218995        0.0029518906       -0.0055406721
  O         0.0005923230       -0.0029619722        0.0284315760
  H        -0.0104892240       -0.0047827308       -0.0112051964
  H         0.0126539695        0.0057475021       -0.0162674576
  O        -0.0410734376        0.0147754634        0.0180796390
  H         0.0224023280       -0.0116380125        0.0090160409
  H         0.0089932796       -0.0004967806       -0.0220674627
      27
 i =    10230, time =     5115.000, E =      -154.7131883740
  O         0.0043052075       -0.0091832458       -0.0078458781
  H        -0.0005350473        0.0006231132       -0.0030696554
  H        -0.0068763305        0.0098396086       -0.0012211311
  O        -0.0325204868        0.0051168119       -0.0218332241
  H         0.0198069380        0.0124892335        0.0155529127
  H         0.0157745404       -0.0179336349        0.0090856522
  O         0.0011965061        0.0096048818        0.0005002650
  H         0.0032061545       -0.0019081695       -0.0058491840
  H        -0.0032838513       -0.0080796040        0.0069560155
  O         0.0150035789       -0.0092141417        0.0360955614
  H        -0.0068014152       -0.0091711481       -0.0099201209
  H        -0.0087657483        0.0174366246       -0.0228142976
  O        -0.0126651018        0.0057272812        0.0055233715
  H        -0.0082001272        0.0019704830       -0.0062626479
  H         0.0240394647       -0.0058202546        0.0018993771
  O        -0.0261165457       -0.0690347286       -0.0099479081
  H        -0.0102007707        0.0272906445       -0.0177682641
  H         0.0337314573        0.0452019535        0.0253800857
  O         0.0032860575       -0.0056148070        0.0322543544
  H         0.0010804509        0.0059542392       -0.0187937450
  H         0.0003941868       -0.0048657891       -0.0070083013
  O        -0.0097906876       -0.0017025878        0.0179863204
  H        -0.0017721846       -0.0015494567       -0.0097073532
  H         0.0074318120        0.0042951968       -0.0069270569
  O         0.0131731688       -0.0180090333        0.0194793224
  H        -0.0180174249        0.0110108468       -0.0040244823
  H         0.0033541261        0.0057523748       -0.0168476059
      27
 i =    10700, time =     5350.000, E =      -154.7147825245
  O        -0.0060814770        0.0006165891        0.0058850429
  H        -0.0035017603        0.0004599147        0.0026355041
  H         0.0061418764       -0.0008145140       -0.0068895486
  O         0.0087660971       -0.0116317664        0.0045802900
  H         0.0201449630       -0.0155200662        0.0093395444
  H        -0.0231285445        0.0276758832       -0.0150375025
  O        -0.0009272779        0.0014717834       -0.0019827788
  H         0.0005467625        0.0010768504       -0.0057436311
  H         0.0001072028       -0.0045463788        0.0073840144
  O         0.0171650974        0.0069453970        0.0142636958
  H        -0.0000256234        0.0003218333       -0.0059275050
  H        -0.0198970979        0.0027746856       -0.0025894054
  O        -0.0219868866        0.0055879389       -0.0312447639
  H        -0.0083433195       -0.0198847727        0.0110194858
  H         0.0293027720        0.0129917965        0.0217704351
  O        -0.0033471756        0.0093291738        0.0066244776
  H         0.0077444327       -0.0114621016       -0.0100510818
  H        -0.0079118388        0.0040190787        0.0045494316
  O        -0.0030382185        0.0069465687        0.0003685928
  H        -0.0012291383        0.0010216423        0.0046088436
  H         0.0020558057       -0.0171973194       -0.0097155694
  O        -0.0008100075        0.0002959083       -0.0219520064
  H         0.0096670628       -0.0019671165        0.0019052403
  H        -0.0088416253        0.0026678542        0.0167139105
  O        -0.0004741944        0.0006787679        0.0241045452
  H         0.0106580929       -0.0113541301       -0.0073418368
  H        -0.0038908521        0.0089683658       -0.0170402021
      27
 i =    11170, time =     5585.000, E =      -154.6972920886
  O         0.0363702748        0.0139762105       -0.0060956392
  H        -0.0105720613       -0.0193296370       -0.0089882989
  H        -0.0243323960        0.0043401301        0.0160375598
  O        -0.0173020077       -0.0520686745       -0.0010252827
  H         0.0173094856        0.0120767888        0.0127365940
  H         0.0033733075        0.0399236610       -0.0138314513
  O         0.0102212600        0.0213538355        0.0111763349
  H        -0.0029881125       -0.0120521572       -0.0271485582
  H        -0.0044379382       -0.0121210046        0.0193381749
  O        -0.0219433319        0.0322509333        0.0433135077
  H        -0.0075129323       -0.0065790706       -0.0290196662
  H         0.0273643587       -0.0223170578       -0.0139814410
  O         0.0195804269        0.0400289319       -0.0173725474
  H        -0.0231127042       -0.0486161299        0.0165798537
  H         0.0041697944        0.0072370415       -0.0006724639
  O         0.0227665111       -0.0329579252       -0.0334995172
  H        -0.0123425776       -0.0086368188        0.0163343017
  H        -0.0121417781        0.0427582892        0.0191587382
  O        -0.0130841527        0.0300746931       -0.0105908185
  H         0.0100488615       -0.0097726345        0.0140702376
  H         0.0055496329       -0.0207832862        0.0028117232
  O         0.0070015664       -0.0045243352        0.0083167902
  H        -0.0102170517        0.0019713611       -0.0065489125
  H        -0.0008063000        0.0009619712       -0.0092123827
  O        -0.0023570308       -0.0100126567       -0.0042487123
  H        -0.0026853606        0.0179436519        0.0015196852
  H         0.0024003171       -0.0052985641       -0.0002478356
      27
 i =    11640, time =     5820.000, E =      -154.7011508839
  O        -0.0073538603       -0.0249552807       -0.0174430662
  H         0.0115822243        0.0155137826        0.0040575909
  H        -0.0047668946        0.0080055863        0.0154604452
  O        -0.0191476979       -0.0103834488       -0.0016790170
  H         0.0103056494        0.0035334321        0.0085125729
  H         0.0034748870        0.0042331484       -0.0049550312
  O        -0.0122670513       -0.0094333890       -0.0107651605
  H         0.0013111603        0.0029929921        0.0172258008
  H         0.0136561545        0.0088710262       -0.0088885063
  O         0.0122335163       -0.0042711778       -0.0282944885
  H        -0.0021778738        0.0003221698       -0.0051057019
  H        -0.0073495198        0.0054410111        0.0377548039
  O        -0.0043202530        0.0096710404        0.0114367074
  H        -0.0005897785       -0.0029483420       -0.0094155755
  H         0.0034361448       -0.0059309014       -0.0014652800
  O         0.0087474557        0.0564853403       -0.0243581207
  H        -0.0035694167       -0.0500810096        0.0244411887
  H        -0.0028231277       -0.0064672009       -0.0020321970
  O         0.0266656025       -0.0077466100        0.0198446511
  H        -0.0124313516       -0.0153810837       -0.0136767041
  H        -0.0107172856        0.0259224727       -0.0036556947
  O         0.0004342500        0.0080789380       -0.0363103924
  H         0.0069921530       -0.0051938671        0.0281394117
  H        -0.0114422179       -0.0055278401        0.0050497552
  O        -0.0260546144        0.0269588720       -0.0091263716
  H         0.0125895361       -0.0359557753        0.0004011891
  H         0.0122194404        0.0091720097        0.0038246087
      27
 i =    12110, time =     6055.000, E =      -154.7111956500
  O         0.0094659315       -0.0049880396       -0.0195808223
  H         0.0014115180        0.0025154916        0.0153958469
  H        -0.0059258708        0.0001409717        0.0002584828
  O        -0.0200947388        0.0000819724       -0.0173401121
  H         0.0218688154        0.0010688980        0.0055921652
  H         0.0011728617       -0.0006305557        0.0126911894
  O        -0.0036051655       -0.0026353082       -0.0406281723
  H         0.0094582922       -0.0058108832        0.0277364850
  H        -0.0083944643        0.0096654481        0.0158423822
  O        -0.0255775284        0.0085520101        0.0139731550
  H         0.0145552411        0.0041584749        0.0084652088
  H         0.0089964841       -0.0006013923       -0.0235349233
  O         0.0214534751        0.0021974004        0.0285800810
  H        -0.0150643555       -0.0055568088       -0.0287691388
  H        -0.0084662947        0.0065554591       -0.0000579550
  O         0.0084508591        0.0554295829       -0.0111163671
  H         0.0063254281       -0.0387165339        0.0217663888
  H        -0.0151587125       -0.0152349346       -0.0107012058
  O        -0.0244999231        0.0212557276        0.0000627525
  H         0.0119832387       -0.0046895638       -0.0033660759
  H         0.0176593421       -0.0289661636        0.0088376158
  O        -0.0133837367        0.0021518481       -0.0063133057
  H         0.0041972682       -0.0075824848        0.0007940426
  H         0.0092944539        0.0021667013        0.0054099265
  O        -0.0072890472       -0.0140169936        0.0027128863
  H         0.0011217833        0.0236068800       -0.0027184429
  H         0.0001848104       -0.0100750876       -0.0038274078
      27
 i =    12580, time =     6290.000, E =      -154.6962422786
  O         0.0330996831       -0.0151956351       -0.0668733421
  H         0.0139483039        0.0089157368        0.0241974809
  H        -0.0486344629        0.0046003874        0.0435139382
  O        -0.0171976419       -0.0083486009       -0.0569631580
  H         0.0208406193        0.0054949374        0.0122256642
  H        -0.0049225598        0.0002827988        0.0435222873
  O         0.0190280113        0.0165205095       -0.0268757362
  H        -0.0201181342       -0.0118640019        0.0234681300
  H        -0.0006613490       -0.0041570487        0.0026500025
  O        -0.0139173110        0.0314723654       -0.0262568120
  H         0.0085275462       -0.0101738330        0.0066770077
  H         0.0068452813       -0.0173994087        0.0192443728
  O         0.0429575056        0.0100623025       -0.0007473959
  H        -0.0087466971        0.0322321774        0.0012519702
  H        -0.0365190052       -0.0408059495        0.0014260636
  O         0.0125168714       -0.0106462700       -0.0020857770
  H        -0.0025372923        0.0031160014        0.0036019479
  H        -0.0104714883        0.0071309812       -0.0019439101
  O         0.0150738704        0.0485253933       -0.0192303106
  H        -0.0176769337       -0.0514275304        0.0198638626
  H         0.0021592627        0.0038014279       -0.0024335133
  O        -0.0080097825       -0.0050860822       -0.0072920251
  H        -0.0107187153        0.0086910395       -0.0028862060
  H         0.0261086982       -0.0066847708        0.0114489106
  O        -0.0248874614        0.0037709191       -0.0064577058
  H         0.0139019833        0.0014554572        0.0011341470
  H         0.0093716786       -0.0040446370        0.0062286339
      27
 i =    13050, time =     6525.000, E =      -154.6942160856
  O        -0.0337972580       -0.0153372266        0.0037411705
  H         0.0242554553        0.0179317738        0.0364462785
  H         0.0274711477        0.0032760870       -0.0420182091
  O        -0.0143813161       -0.0018434137       -0.0207218074
  H         0.0174850665        0.0005201813        0.0205729745
  H        -0.0043150115       -0.0019262325       -0.0004210872
  O         0.0004651462       -0.0176489299       -0.0012008552
  H        -0.0105441175        0.0170882930        0.0041256077
  H        -0.0034209693       -0.0027205149       -0.0100869463
  O         0.0207239377       -0.0046676551       -0.0255100003
  H        -0.0166852284        0.0043788180       -0.0211732814
  H        -0.0060630745       -0.0005378641        0.0453808079
  O         0.0061049257        0.0015871316       -0.0064887708
  H        -0.0043868768        0.0007605424        0.0041151899
  H        -0.0028749569        0.0035769565        0.0022990889
  O         0.0124345577        0.0274909076       -0.0174032187
  H         0.0013404157       -0.0204938616        0.0113208134
  H        -0.0118232817       -0.0063533766        0.0038111885
  O         0.0006239303       -0.0130033083        0.0047136098
  H        -0.0130883515       -0.0063058224       -0.0038432075
  H         0.0127800447        0.0138451464       -0.0002212532
  O         0.0020135942        0.0034099813       -0.0364821947
  H         0.0092425977        0.0008793926        0.0394153345
  H        -0.0077628970       -0.0058503041       -0.0014235052
  O         0.0294001617        0.0301580008       -0.0006276893
  H        -0.0183411603        0.0370355635       -0.0161884142
  H        -0.0165309442       -0.0649627547        0.0273033888
      27
 i =    13520, time =     6760.000, E =      -154.6916302556
  O         0.0095443424       -0.0015419999       -0.0786272983
  H         0.0218373068       -0.0016566476        0.0568206497
  H        -0.0300677040        0.0036801145        0.0212984573
  O        -0.0171605083       -0.0383225991       -0.0010197430
  H         0.0081838071        0.0203904130        0.0012316184
  H         0.0083573068        0.0148850485        0.0045403235
  O         0.0037813527        0.0034917538       -0.0293038975
  H        -0.0003092615        0.0024116603        0.0090059101
  H        -0.0009706064       -0.0071258637        0.0212530926
  O         0.0492273805       -0.0305818353       -0.0466968965
  H        -0.0396677280        0.0102827420       -0.0051030006