      27
 i =        1, time =     3000.000, E =      -155.1013451610
  O        -0.0219989409       -0.0112389448       -0.0048243859
  H         0.0178108519        0.0152732218       -0.0004419002
  H         0.0040378670       -0.0049375160        0.0043599437
  O        -0.0159043164       -0.0173764868        0.0124510755
  H         0.0368557100       -0.0087097600        0.0054601445
  H        -0.0219488771        0.0254472336       -0.0169354005
  O         0.0015773972        0.0347249987       -0.0277217650
  H         0.0045684523        0.0013990587        0.0044768607
  H        -0.0043894982       -0.0377683394        0.0252385008
  O        -0.0158729220        0.0108114964       -0.0057964063
  H         0.0057909798       -0.0017281067        0.0106495549
  H         0.0099220612       -0.0075233004       -0.0028917579
  O        -0.0341047982        0.0227273368       -0.0669303911
  H        -0.0071840866       -0.0288286331        0.0197348830
  H         0.0418464384        0.0069039242        0.0461850929
  O         0.0210357074       -0.0264027880       -0.0247053140
  H        -0.0174782681        0.0037532065        0.0291360848
  H        -0.0022456634        0.0240267937       -0.0036726132
  O        -0.0060812339       -0.0168467196        0.0003669729
  H         0.0106650440        0.0241971532        0.0074505582
  H        -0.0011217441       -0.0069099649       -0.0116266314
  O        -0.0294689324       -0.0001489369       -0.0095629110
  H         0.0124967064       -0.0007619216        0.0267407765
  H         0.0163356852        0.0006414162       -0.0163522487
  O        -0.0338442609        0.0090342674       -0.0054718533
  H         0.0085865526       -0.0150022520        0.0063290015
  H         0.0204333900        0.0061214331       -0.0033574944
      27
 i =     6470, time =     3235.000, E =      -155.1265487962
  O         0.0257574592       -0.0347500618        0.0176312341
  H         0.0078554498        0.0154145482       -0.0015990608
  H        -0.0305275796        0.0198124979       -0.0175380240
  O        -0.0040274795       -0.0256308138        0.0143115670
  H         0.0116594816       -0.0008155117       -0.0027406084
  H        -0.0090656311        0.0247008249       -0.0105010606
  O         0.0050596200        0.0155810201        0.0113571165
  H         0.0021571654       -0.0031917493       -0.0140820610
  H        -0.0059827275       -0.0118523466        0.0041490413
  O         0.0297095717        0.0074621800        0.0420040114
  H        -0.0388131157       -0.0046395705       -0.0214778874
  H        -0.0012790995       -0.0028392381       -0.0115758322
  O        -0.0402801516        0.0195763718       -0.0144594091
  H         0.0034661129       -0.0070482618        0.0166877488
  H         0.0337393195       -0.0136010856       -0.0020651613
  O        -0.0059123067       -0.0189328746       -0.0123632500
  H        -0.0121646000       -0.0106724802       -0.0104620223
  H         0.0231495702        0.0258589943        0.0094625809
  O        -0.0142554265       -0.0256554501       -0.0116985726
  H         0.0175740576        0.0267261439        0.0116090632
  H        -0.0033011076       -0.0001827048       -0.0021604015
  O         0.0217008112        0.0278435573        0.0434130552
  H         0.0045680991       -0.0045006187       -0.0349345453
  H        -0.0197598057       -0.0220156521       -0.0054679980
  O        -0.0072014866        0.0000524986       -0.0027716196
  H         0.0038797541       -0.0057967092        0.0120938139
  H         0.0007159204        0.0089519492       -0.0069348810
      27
 i =     6940, time =     3470.000, E =      -155.1198118619
  O        -0.0071282166       -0.0428596161        0.0171653079
  H         0.0082104115        0.0148601016        0.0035168434
  H        -0.0025312674        0.0276292362       -0.0232440842
  O         0.0041619646        0.0056032622       -0.0007040511
  H         0.0024719920       -0.0050599445        0.0019784242
  H        -0.0031015368       -0.0006855319        0.0009855409
  O         0.0011712621        0.0204098131       -0.0101512923
  H         0.0023539418       -0.0039299834       -0.0175310597
  H        -0.0054087964       -0.0245693776        0.0284684673
  O        -0.0138075145        0.0174329346        0.0178063581
  H         0.0036412575       -0.0108955640       -0.0211993664
  H         0.0112253257       -0.0076757933        0.0022438689
  O        -0.0079113853       -0.0095265716        0.0001021303
  H         0.0158006791        0.0228819377        0.0008748873
  H        -0.0036231349       -0.0148814428        0.0009264041
  O        -0.0235509343       -0.0290928993        0.0258658876
  H         0.0282643876       -0.0060689275       -0.0315169300
  H        -0.0051538175        0.0352724717        0.0074806673
  O        -0.0366176291        0.0074124080       -0.0126336007
  H         0.0228652119        0.0142179549        0.0173403429
  H         0.0148527774       -0.0199913080       -0.0035920858
  O         0.0022525082        0.0023888761       -0.0179895262
  H        -0.0083707467        0.0090739332        0.0171208626
  H         0.0069237206       -0.0074022774       -0.0036433064
  O        -0.0139051903        0.0201172163       -0.0068228107
  H         0.0070653398       -0.0070855997       -0.0024567225
  H        -0.0004135000       -0.0087934811        0.0099364798
      27
 i =     7410, time =     3705.000, E =      -155.1256869815
  O        -0.0196271035       -0.0140212404       -0.0240781358
  H         0.0312332825        0.0051227218        0.0335467695
  H        -0.0088870575        0.0095160859       -0.0105104711
  O         0.0142580813        0.0001360559        0.0000354394
  H        -0.0052049355       -0.0027050820        0.0090332907
  H        -0.0039636436        0.0035181182       -0.0089024554
  O        -0.0034038988        0.0030548377       -0.0000555922
  H         0.0041765682       -0.0018674423       -0.0013624144
  H         0.0042427287       -0.0022179699        0.0006046339
  O         0.0078992881        0.0303806971        0.0028769629
  H         0.0002860347       -0.0182020311       -0.0177175850
  H        -0.0089777885       -0.0108473863        0.0188852611
  O         0.0200980410       -0.0177799241        0.0224999796
  H        -0.0034877108        0.0059366303       -0.0197184968
  H        -0.0188393962        0.0153043416       -0.0003781906
  O         0.0133764192        0.0046702895        0.0071832384
  H        -0.0081507853       -0.0098440624       -0.0000270990
  H        -0.0093416486        0.0034778848       -0.0105171793
  O         0.0085162071       -0.0124531312       -0.0083591528
  H         0.0042851433        0.0301289299        0.0186894699
  H        -0.0122132935       -0.0210404532       -0.0145306378
  O         0.0055438136        0.0357018385        0.0152598322
  H         0.0093468554       -0.0147028674       -0.0197832449
  H        -0.0142385352       -0.0202880210        0.0050509296
  O        -0.0389870722        0.0184332382        0.0216126614
  H         0.0215291928       -0.0225267879       -0.0043247650
  H         0.0103542740        0.0023292488       -0.0156935481
      27
 i =     7880, time =     3940.000, E =      -155.1032533862
  O         0.0042530706       -0.0367471066        0.0068475886
  H        -0.0097671661        0.0138697166        0.0196602881
  H         0.0114958113        0.0134828320       -0.0222874673
  O        -0.0123741841       -0.0090067871       -0.0153552040
  H         0.0204712430        0.0078958197        0.0137041979
  H        -0.0023828971        0.0030927905       -0.0021543642
  O         0.0151041263       -0.0223562633        0.0134648166
  H         0.0044471741       -0.0074481002       -0.0016874124
  H        -0.0252180989        0.0402796380       -0.0165091687
  O         0.0033048796        0.0305687791        0.0152195411
  H         0.0003074961       -0.0277136026       -0.0059511695
  H        -0.0002657141       -0.0064687263       -0.0076922711
  O         0.0259981339       -0.0203503396        0.0214100608
  H        -0.0174647528        0.0130024812       -0.0316071411
  H        -0.0083276002        0.0053650829        0.0091662056
  O         0.0472966583        0.0265870648        0.0032139251
  H        -0.0113227763       -0.0286189530        0.0099013847
  H        -0.0369685359        0.0040443904       -0.0135362515
  O        -0.0158625619       -0.0379375736        0.0238828972
  H         0.0167612270       -0.0044243212       -0.0275972823
  H        -0.0054812481        0.0421481211        0.0050107072
  O         0.0114842435        0.0423227487        0.0073373082
  H         0.0027330203        0.0055450106        0.0032545306
  H        -0.0153647871       -0.0482205684       -0.0104127658
  O        -0.0246231416        0.0152312498        0.0285947185
  H         0.0143640434       -0.0252206158        0.0012230951
  H         0.0078466168        0.0119243785       -0.0272407842
      27
 i =     8350, time =     4175.000, E =      -155.1114813700
  O        -0.0180793052       -0.0262171846       -0.0066167276
  H        -0.0050210680        0.0244281088        0.0236411817
  H         0.0272420638       -0.0025977021       -0.0201183082
  O         0.0056279430       -0.0416412713       -0.0129775843
  H         0.0167371209        0.0109081577        0.0232491334
  H        -0.0201487261        0.0322909371       -0.0120525726
  O        -0.0096598701       -0.0094881694        0.0023087356
  H         0.0161254352       -0.0122716259        0.0126996107
  H        -0.0084753019        0.0300838088       -0.0167261729
  O         0.0002009860       -0.0039678894        0.0066544835
  H         0.0040187870        0.0005449758       -0.0080840979
  H        -0.0023141242        0.0022518908        0.0018019601
  O        -0.0314878628        0.0073468667        0.0203377023
  H        -0.0006398914        0.0083893174       -0.0280362884
  H         0.0301444934       -0.0134781159        0.0063921828
  O         0.0142987127        0.0230725042       -0.0070820818
  H        -0.0307439081       -0.0346406733       -0.0007091284
  H         0.0169893711        0.0168275264        0.0075398094
  O        -0.0143729654       -0.0286138166       -0.0189728909
  H         0.0220957369        0.0189575161        0.0195837976
  H        -0.0093692016        0.0031929846        0.0042964257
  O         0.0216337479       -0.0169664971       -0.0330014007
  H        -0.0081424067        0.0148228437        0.0388228853
  H        -0.0156365956        0.0036507095       -0.0081008058
  O        -0.0014334768        0.0087477208        0.0142358215
  H        -0.0058448584       -0.0203137763        0.0026331875
  H         0.0049672313        0.0046822582       -0.0117983302
      27
 i =     8820, time =     4410.000, E =      -155.1177858980
  O        -0.0006080664       -0.0139294505       -0.0099221666
  H        -0.0034397434        0.0126131114        0.0117322911
  H         0.0057828989        0.0004353126       -0.0070992192
  O         0.0169719921       -0.0244938681        0.0309396434
  H        -0.0092270139       -0.0056531298       -0.0175134073
  H        -0.0052150342        0.0325243737       -0.0137306185
  O         0.0055124916        0.0243608835        0.0242654447
  H        -0.0117525529        0.0001829063       -0.0228684917
  H         0.0079736243       -0.0214111058        0.0020933020
  O         0.0065503122       -0.0055866090       -0.0093906027
  H        -0.0041113935       -0.0009289327       -0.0044359608
  H        -0.0047337982        0.0065131154        0.0175140008
  O        -0.0249949259        0.0119479857        0.0279674907
  H        -0.0069644536        0.0042293205       -0.0179196219
  H         0.0308360246       -0.0158426353       -0.0083147468
  O        -0.0121804823        0.0517160153       -0.0524660241
  H         0.0006354170       -0.0345140560        0.0250505506
  H         0.0069874587       -0.0104301221        0.0176587115
  O        -0.0081244498       -0.0036397382       -0.0131975940
  H         0.0020461399       -0.0094402616        0.0040835676
  H         0.0041443363        0.0119276158        0.0076801864
  O        -0.0039735363        0.0006570964        0.0019216242
  H         0.0034584926        0.0056154670       -0.0071084748
  H         0.0011096326       -0.0058092785        0.0053259588
  O         0.0254197125        0.0103826020       -0.0617033291
  H         0.0106399771       -0.0195583602        0.0261609822
  H        -0.0328338219       -0.0006623807        0.0443832235
      27
 i =     9290, time =     4645.000, E =      -155.1039282665
  O        -0.0271579341       -0.0138533619       -0.0105438596
  H        -0.0021557539        0.0398982446        0.0360079561
  H         0.0312163272       -0.0224886530       -0.0352757760
  O         0.0253878985       -0.0369992100       -0.0093486847
  H         0.0163950397        0.0017474619        0.0287071495
  H        -0.0390933456        0.0350003488       -0.0217586465
  O        -0.0079344512       -0.0003294298       -0.0094165573
  H        -0.0030652552       -0.0095213788        0.0120073147
  H         0.0184388549        0.0163784914       -0.0031685252
  O         0.0043944562        0.0207676379        0.0151533278
  H        -0.0128829805       -0.0034788010       -0.0267284340
  H         0.0111639047       -0.0136027107        0.0120347134
  O        -0.0008472671       -0.0021901142        0.0239605484
  H        -0.0013330808       -0.0042800893       -0.0184433440
  H        -0.0041475140       -0.0005110056       -0.0045647199
  O        -0.0135527007        0.0037156256       -0.0156587721
  H        -0.0153861762       -0.0340244566        0.0095468391
  H         0.0275925017        0.0335472806        0.0053580577
  O         0.0168697155       -0.0302346087        0.0095480510
  H        -0.0291427340        0.0118261680       -0.0006831917
  H         0.0123213691        0.0138987452       -0.0065944281
  O        -0.0037809229       -0.0100567120       -0.0008321774
  H         0.0135275165        0.0311804327        0.0193165119
  H        -0.0129853393       -0.0246842440       -0.0148983938
  O        -0.0008606952        0.0097546580       -0.0014360446
  H         0.0026606957       -0.0054029290       -0.0000859754
  H        -0.0042813006       -0.0056256417        0.0080008733
      27
 i =     9760, time =     4880.000, E =      -155.1075699559
  O         0.0305559925       -0.0043946291       -0.0219886489
  H        -0.0013460086       -0.0021787696       -0.0025434682
  H        -0.0228451455        0.0085137669        0.0149419791
  O         0.0168452307       -0.0458235795        0.0091103961
  H         0.0127946938        0.0061298226        0.0297751852
  H        -0.0271221013        0.0420768196       -0.0384638902
  O        -0.0392887989        0.0037824014        0.0011839693
  H         0.0165356257       -0.0149334007        0.0140950880
  H         0.0224364903        0.0107176819       -0.0166901525
  O         0.0098413990        0.0121662260       -0.0348478737
  H         0.0038829216        0.0075641672        0.0191890116
  H        -0.0120005907       -0.0202280387        0.0167724647
  O         0.0237165248        0.0037376407        0.0484863705
  H        -0.0112460383       -0.0055630770       -0.0399475449
  H        -0.0131764902        0.0059458133       -0.0064606598
  O        -0.0148769554        0.0402165709       -0.0286933656
  H         0.0117122846       -0.0368603422        0.0232564968
  H         0.0034722443       -0.0052209567        0.0044984559
  O        -0.0253831791       -0.0137060215       -0.0336133420
  H         0.0284920361        0.0160817242        0.0455274658
  H        -0.0049951604       -0.0074219043       -0.0089029708
  O         0.0101962813        0.0029043057        0.0337772078
  H        -0.0116897087       -0.0066376735       -0.0220862204
  H         0.0037290407        0.0015172557       -0.0110954729
  O        -0.0500760924        0.0172639819        0.0217242284
  H         0.0290676901       -0.0168659737        0.0146423234
  H         0.0116707874        0.0020341838       -0.0311467211
      27
 i =    10230, time =     5115.000, E =      -155.1239369226
  O        -0.0072121332       -0.0132709496       -0.0074224381
  H         0.0022297892        0.0092137980        0.0022444242
  H         0.0021615282        0.0044851523       -0.0052882644
  O        -0.0331570066       -0.0050438998       -0.0249610018
  H         0.0273753323        0.0163060908        0.0220284237
  H         0.0089440679       -0.0107970971        0.0049442733
  O        -0.0057274171        0.0011988951       -0.0061471455
  H         0.0008340849        0.0002126946        0.0052244085
  H         0.0062613058       -0.0019935992        0.0028671797
  O         0.0143533886        0.0015019917        0.0338226834
  H        -0.0110346648       -0.0160161204       -0.0176537541
  H        -0.0040702281        0.0139257305       -0.0130942167
  O        -0.0160468262        0.0095734174        0.0126860142
  H        -0.0132499285        0.0027397114       -0.0154102727
  H         0.0328136416       -0.0107802133        0.0031296331
  O        -0.0316722845       -0.0684963487       -0.0187337872
  H        -0.0085721507        0.0177264858       -0.0130074991
  H         0.0387244160        0.0534237615        0.0295761790
  O        -0.0039853380        0.0017813932        0.0260177939
  H         0.0025623345        0.0085300159       -0.0086037047
  H         0.0046384300       -0.0136347087       -0.0117948915
  O        -0.0034906310        0.0076540250        0.0202191226
  H        -0.0030878359       -0.0052708622       -0.0198362990
  H         0.0027675849       -0.0013877708        0.0010064567
  O         0.0034928046       -0.0166351967        0.0222334764
  H        -0.0119230389        0.0045830025        0.0007907236
  H         0.0063257017        0.0107332822       -0.0244965272
      27
 i =    10700, time =     5350.000, E =      -155.1224394400
  O        -0.0151370650       -0.0063623495        0.0029728681
  H        -0.0041565314        0.0074562647        0.0114029347
  H         0.0157535763       -0.0009712415       -0.0126331417
  O         0.0064488177       -0.0192805600       -0.0009255569
  H         0.0280955247       -0.0162500609        0.0168204632
  H        -0.0286757614        0.0365671826       -0.0176668216
  O         0.0064882966        0.0099576447        0.0018736908
  H        -0.0028386299        0.0003676350       -0.0164880065
  H        -0.0036707243       -0.0120022678        0.0147743309
  O         0.0121432053        0.0100506203        0.0230842808
  H        -0.0043878766       -0.0005596114       -0.0158737855
  H        -0.0098200631       -0.0006939436       -0.0018819919
  O        -0.0241503639        0.0086636981       -0.0410375347
  H        -0.0128606424       -0.0283227832        0.0155298919
  H         0.0366688786        0.0176187154        0.0273698674
  O        -0.0088880215        0.0014312648        0.0097353328
  H         0.0165604447       -0.0136788973       -0.0162673375
  H        -0.0108308221        0.0142022074        0.0078720586
  O        -0.0031111667        0.0164202483       -0.0063908795
  H        -0.0034024422        0.0025191236        0.0153192532
  H         0.0046158045       -0.0265074705       -0.0121939781
  O        -0.0128361386        0.0037028898       -0.0266732901
  H         0.0122411917       -0.0034620616        0.0125618484
  H         0.0004507848        0.0004419398        0.0107028542
  O        -0.0035044793        0.0030556235        0.0323344946
  H         0.0162839773       -0.0188568644       -0.0086060832
  H        -0.0072648414        0.0147956438       -0.0248899375
      27
 i =    11170, time =     5585.000, E =      -155.1031139043
  O         0.0249935451        0.0084448357       -0.0054963723
  H        -0.0079034817       -0.0098192541       -0.0030910960
  H        -0.0160259952       -0.0007452847        0.0099531767
  O        -0.0241579286       -0.0625545087       -0.0028746817
  H         0.0252375426        0.0136034847        0.0201624277
  H         0.0013802288        0.0494093624       -0.0181705660
  O         0.0161745926        0.0311541662        0.0130659331
  H        -0.0053045668       -0.0159353156       -0.0370159137
  H        -0.0072351121       -0.0180737886        0.0281073300
  O        -0.0261409682        0.0372303029        0.0535964421
  H        -0.0128231157       -0.0072907033       -0.0378130518
  H         0.0363448901       -0.0268798354       -0.0153350382
  O         0.0164657435        0.0439946300       -0.0264030557
  H        -0.0275237050       -0.0577748007        0.0197467538
  H         0.0121384674        0.0115735330        0.0051039216
  O         0.0209728249       -0.0437523855       -0.0296977049
  H        -0.0070280409       -0.0065249627        0.0069708646
  H        -0.0159457399        0.0514735006        0.0245100044
  O        -0.0163380510        0.0391842833       -0.0194607655
  H         0.0143959819       -0.0088780118        0.0237328506
  H         0.0047688282       -0.0309334305        0.0005803730
  O        -0.0012463970       -0.0047985138        0.0047701776
  H        -0.0090811058       -0.0008105762        0.0036987157
  H         0.0076279757        0.0036561371       -0.0155192841
  O        -0.0102885945       -0.0052737831        0.0020417765
  H        -0.0006255486        0.0080415103        0.0015969926
  H         0.0088889175        0.0002801661       -0.0069173537
      27
 i =    11640, time =     5820.000, E =      -155.1087220466
  O        -0.0177979585       -0.0334089887       -0.0168901854
  H         0.0119302707        0.0244800175        0.0102181641
  H         0.0049702276        0.0070687842        0.0103527707
  O        -0.0262478529       -0.0182850819       -0.0001948761
  H         0.0188022082        0.0043675650        0.0145345013
  H         0.0027438214        0.0111103955       -0.0128483406
  O        -0.0164366082       -0.0198152966       -0.0168331710
  H         0.0012302488        0.0043757049        0.0284035459
  H         0.0181004782        0.0178216977       -0.0139884391
  O         0.0227990361       -0.0010327807       -0.0325867352
  H        -0.0108167258       -0.0035485289       -0.0120454150
  H        -0.0093714938        0.0069969797        0.0484909670
  O        -0.0080460575        0.0167683216        0.0193181657
  H        -0.0040592731       -0.0033259547       -0.0199125966
  H         0.0105441706       -0.0140006056        0.0010510226
  O         0.0043148327        0.0609154497       -0.0346928459
  H        -0.0053250896       -0.0600245500        0.0278089288
  H         0.0038645605       -0.0015074652        0.0049591470
  O         0.0163445483       -0.0073593138        0.0137669515
  H        -0.0075911735       -0.0066571401       -0.0082044949
  H        -0.0044359045        0.0169778668       -0.0030349060
  O        -0.0090206427        0.0063442828       -0.0409139968
  H         0.0087725149       -0.0076382468        0.0385344611
  H        -0.0029306083       -0.0017884636       -0.0006443773
  O        -0.0358074813        0.0298153817       -0.0055686787
  H         0.0155230878       -0.0449475702        0.0010998947
  H         0.0186489901        0.0156646985       -0.0000605649
      27
 i =    12110, time =     6055.000, E =      -155.1207079076
  O        -0.0021021182       -0.0052237469       -0.0234139572
  H         0.0035728844        0.0056317996        0.0257619611
  H         0.0029386016       -0.0021893636       -0.0061696347
  O        -0.0301572159       -0.0009011246       -0.0119364119
  H         0.0311220035        0.0021063767        0.0106454603
  H         0.0015973230       -0.0005993774        0.0020017823
  O        -0.0045379215       -0.0078917276       -0.0526716209
  H         0.0134268959       -0.0107408883        0.0370454142
  H        -0.0119860991        0.0196749483        0.0186635735
  O        -0.0150509406        0.0108422659        0.0104943125
  H         0.0084059206       -0.0024393264        0.0025965200
  H         0.0055184547        0.0020778562       -0.0130229828
  O         0.0177745565        0.0078074823        0.0378990856
  H        -0.0211858262       -0.0061123126       -0.0374867631
  H         0.0006999081        0.0007036315       -0.0008104016
  O         0.0018518383        0.0574438762       -0.0202486862
  H         0.0065997375       -0.0486152178        0.0260093855
  H        -0.0087746113       -0.0080493221       -0.0053605306
  O        -0.0230664154        0.0331945134       -0.0072159429
  H         0.0040187288       -0.0076403356        0.0040398647
  H         0.0241064245       -0.0362341184        0.0083005076
  O        -0.0229518071        0.0096234253       -0.0135811036
  H         0.0111803201       -0.0033155476        0.0085855867
  H         0.0116514353       -0.0087602285        0.0045820041
  O        -0.0124980198       -0.0083317821        0.0109355190
  H         0.0019237305        0.0137709502       -0.0029198823
  H         0.0044691295       -0.0056527267       -0.0118672372
      27
 i =    12580, time =     6290.000, E =      -155.1014461650
  O         0.0209197280       -0.0191552558       -0.0685683168
  H         0.0178469612        0.0134576451        0.0338124489
  H        -0.0405210684        0.0034347336        0.0357354566
  O        -0.0263189991       -0.0106123313       -0.0513550905
  H         0.0298003652        0.0086755575        0.0174723563
  H        -0.0049326755       -0.0001670116        0.0323693219
  O         0.0257913581        0.0102161120       -0.0338929657
  H        -0.0264940427       -0.0161223417        0.0306700487
  H         0.0004919606        0.0069310890        0.0017369813
  O        -0.0118268020        0.0428211446       -0.0299113452
  H         0.0069156286       -0.0189165131        0.0010013218
  H         0.0072991380       -0.0197603063        0.0292087760
  O         0.0543157712        0.0068820774       -0.0004772924
  H        -0.0120799530        0.0425238205        0.0009786913
  H        -0.0440217506       -0.0486785761        0.0018520247
  O         0.0051743685       -0.0038481159        0.0040150317
  H        -0.0037417000        0.0023147225       -0.0078712147
  H        -0.0022181112        0.0010229914        0.0033787193
  O         0.0085232843        0.0552778715       -0.0242956250
  H        -0.0212141839       -0.0607476921        0.0234437285
  H         0.0126855900        0.0058571809       -0.0013166796
  O        -0.0058560703        0.0047273311       -0.0098316008
  H        -0.0212160755        0.0051871497       -0.0045694023
  H         0.0336017208       -0.0122778983        0.0160917734
  O        -0.0354886984        0.0023428183       -0.0002124993
  H         0.0217842482       -0.0050437621        0.0010643840
  H         0.0122173651        0.0037743677        0.0004376232
      27
 i =    13050, time =     6525.000, E =      -155.1058685528
  O        -0.0459220795       -0.0186703546        0.0050558162
  H         0.0302014211        0.0215113719        0.0447336936
  H         0.0327793981        0.0029443324       -0.0505467042
  O        -0.0217261441       -0.0085947738       -0.0196454683
  H         0.0250736257        0.0016505047        0.0280627845
  H        -0.0039315318        0.0037686005       -0.0096180473
  O        -0.0055308514       -0.0127323413       -0.0072290954
  H        -0.0041939929        0.0080853746        0.0010793530
  H        -0.0030152134        0.0009711600        0.0000284136
  O         0.0303004359       -0.0073381714       -0.0293137623
  H        -0.0249269206        0.0063857511       -0.0280516157
  H        -0.0078884838        0.0001257404        0.0562654618
  O        -0.0029060585        0.0034749128       -0.0002548777
  H        -0.0062412486        0.0024960539       -0.0063173095
  H         0.0068873255       -0.0009213165        0.0059424483
  O         0.0052706600        0.0363846488       -0.0223409555
  H        -0.0021808329       -0.0292230704        0.0158597165
  H        -0.0012904576       -0.0060098238        0.0045201288
  O        -0.0073236947       -0.0041746877        0.0004668535
  H        -0.0020176165       -0.0043399410       -0.0009309244
  H         0.0103077661        0.0035535890        0.0014060856
  O         0.0111535912        0.0104060716       -0.0327783094
  H         0.0059852584        0.0002744761        0.0289523226
  H        -0.0140104962       -0.0116137508        0.0050936936
  O         0.0174797166        0.0259668676       -0.0022088484
  H        -0.0106957594        0.0320378869       -0.0124245057
  H        -0.0124504910       -0.0559227165        0.0245224894
      27
 i =    13520, time =     6760.000, E =      -155.0961616577
  O        -0.0028271792       -0.0015895530       -0.0810779817
  H         0.0257990368       -0.0015834084        0.0673593500
  H        -0.0218461495        0.0029245209        0.0134415459
  O        -0.0206541371       -0.0509402469       -0.0014540551
  H         0.0164173573        0.0247112087        0.0063479940
  H         0.0029015114        0.0232544234       -0.0001392425
  O         0.0001970192        0.0121691795       -0.0383651711
  H         0.0063309031       -0.0062293070        0.0075290089
  H        -0.0041439343       -0.0067866428        0.0318603207
  O         0.0590031054       -0.0368838348       -0.0539333534
  H        -0.0502713422        0.0127218424       -0.0083823200