      25
 i =        1, time =     3000.000, E =      -165.5349529722
  O        -0.0017580884       -0.0160527440        0.0266237766
  H         0.0161234874        0.0090288927       -0.0288953859
  H        -0.0106477803        0.0103615479        0.0050592296
  O         0.0078275550       -0.0560772762       -0.0140146897
  H        -0.0359357832        0.0138610895       -0.0035263459
  H         0.0263649154        0.0398541617        0.0116365340
  O         0.0039989482        0.0019787827       -0.0276299595
  H        -0.0384554284       -0.0184829370        0.0206526027
  H         0.0329103239        0.0165589764        0.0072647182
  O         0.0017842686        0.0206071052        0.0304997490
  H        -0.0040687147        0.0020313688        0.0061388996
  H         0.0016350089       -0.0189223886       -0.0359354745
  O        -0.0141160758        0.0058347342        0.0034838831
  H         0.0081253779        0.0062384098        0.0001374631
  H         0.0038443485       -0.0130602711       -0.0058183263
  O        -0.0104338315       -0.0074025517       -0.0157956538
  H         0.0026196970        0.0126884898        0.0121287201
  H         0.0053711604       -0.0081231018       -0.0016465946
  O        -0.0042002453       -0.0150308807        0.0006679951
  H         0.0018101409        0.0066769183       -0.0012060531
  H         0.0002913051        0.0073547835        0.0017009165
  O         0.0097896858       -0.0065220262       -0.0373390998
  H        -0.0158729873       -0.0093918629        0.0196548398
  H         0.0088125625        0.0164420522        0.0164430188
  K         0.0029542456       -0.0009173483        0.0094875105
      25
 i =     6470, time =     3235.000, E =      -165.5396337688
  O        -0.0468266232        0.0235102869        0.0439223954
  H         0.0170976419        0.0101473281       -0.0346083033
  H         0.0309502563       -0.0303707479       -0.0091147832
  O         0.0001990921       -0.0178737240       -0.0224592219
  H        -0.0071313367        0.0024345466        0.0080435369
  H         0.0001048223        0.0067549872        0.0018993343
  O        -0.0245508240       -0.0195016234       -0.0300131612
  H         0.0095278721        0.0049699610       -0.0039727607
  H         0.0138195083        0.0146822168        0.0373704044
  O        -0.0306553471       -0.0214170726        0.0271828644
  H         0.0248768002        0.0201994931        0.0305458525
  H         0.0115405214        0.0099579568       -0.0501695097
  O         0.0078327546        0.0093597229       -0.0030050025
  H        -0.0041583791        0.0107764853        0.0082964779
  H        -0.0057789672       -0.0199770562       -0.0070010545
  O        -0.0161517286        0.0357970661        0.0150241029
  H        -0.0081383241       -0.0308803370       -0.0143502777
  H         0.0262162226       -0.0074872846       -0.0038504803
  O        -0.0571124994        0.0067883446        0.0009148760
  H         0.0552054279       -0.0063706275        0.0073438915
  H         0.0007474397       -0.0014139494       -0.0059115538
  O        -0.0264786286       -0.0272100560       -0.0444058514
  H        -0.0043996959       -0.0154595667        0.0323993320
  H         0.0332144346        0.0419178164        0.0134791017
  K         0.0005630469        0.0014113246        0.0027006979
      25
 i =     6940, time =     3470.000, E =      -165.5455808374
  O        -0.0226089134       -0.0151642987        0.0223898276
  H         0.0424306516        0.0174648149       -0.0320685010
  H        -0.0182567855       -0.0047397256        0.0075604591
  O         0.0416466888       -0.0275181675        0.0140567740
  H        -0.0395949326       -0.0054988675        0.0080474356
  H        -0.0031306024        0.0352807727       -0.0211243182
  O        -0.0191169202        0.0112868642       -0.0075394896
  H         0.0053173946       -0.0052915797        0.0034127738
  H         0.0111733308       -0.0049624896        0.0056679052
  O        -0.0057949175        0.0208241998        0.0341482710
  H        -0.0122227748       -0.0090115021       -0.0045479555
  H         0.0156351369       -0.0103755441       -0.0319418156
  O         0.0137175169        0.0365400755       -0.0127579119
  H        -0.0061011415       -0.0103990957        0.0058997615
  H        -0.0070573855       -0.0265423160        0.0065585442
  O        -0.0138049956       -0.0014869147       -0.0074529872
  H         0.0078441935       -0.0010279503        0.0005397323
  H         0.0093374697        0.0025069218        0.0027411190
  O        -0.0118442953        0.0522954221       -0.0056878560
  H         0.0326117667       -0.0133016938        0.0100555039
  H        -0.0221942616       -0.0392129087       -0.0040830507
  O         0.0106229502        0.0039617569        0.0041941036
  H        -0.0004366169        0.0019070648       -0.0040261488
  H        -0.0102040758       -0.0066082734       -0.0007904268
  K         0.0017958466       -0.0001386310        0.0068092176
      25
 i =     7410, time =     3705.000, E =      -165.5436121958
  O         0.0066288486       -0.0065502927        0.0031566477
  H         0.0007164970       -0.0040824667        0.0038946395
  H        -0.0031168328        0.0139001083       -0.0059470850
  O        -0.0160425438       -0.0025556816       -0.0021261525
  H        -0.0133720834       -0.0087463278        0.0022890506
  H         0.0236310833        0.0159838211        0.0003741892
  O         0.0268358917       -0.0212632348       -0.0433992172
  H        -0.0271244318        0.0095742441        0.0367864940
  H         0.0034106070        0.0120367556        0.0071414839
  O        -0.0156126082       -0.0008932334       -0.0104192403
  H         0.0004948569        0.0144273797        0.0089758729
  H         0.0172964610       -0.0148351556       -0.0019276194
  O        -0.0011330113        0.0300171135        0.0188364213
  H        -0.0143121209       -0.0107021062       -0.0191639531
  H         0.0156550773       -0.0244243282        0.0031642276
  O        -0.0120965279        0.0301764944        0.0034202670
  H         0.0137878069       -0.0154474555        0.0030406782
  H        -0.0029314613       -0.0119361507       -0.0063530228
  O        -0.0173596174       -0.0239564000       -0.0016067790
  H        -0.0033358153       -0.0031129312       -0.0020439639
  H         0.0232616021        0.0249880142        0.0055936078
  O        -0.0003971883        0.0093824027       -0.0020271865
  H         0.0186579817        0.0039477648       -0.0032953528
  H        -0.0190341072       -0.0119227791        0.0034076879
  K        -0.0054755355       -0.0034606144       -0.0013478374
      25
 i =     7880, time =     3940.000, E =      -165.5317372214
  O        -0.0209597392        0.0049769319       -0.0292005060
  H         0.0019374059       -0.0017823637        0.0077496197
  H         0.0146218997        0.0045053465        0.0153560204
  O         0.0414107808       -0.0174972705       -0.0070990048
  H        -0.0136447020        0.0016260689        0.0250041816
  H        -0.0273377130        0.0157920906       -0.0205839193
  O         0.0185913551        0.0039877699       -0.0171568194
  H        -0.0111121217        0.0033221801        0.0248562444
  H        -0.0055582325       -0.0085155552       -0.0056476553
  O        -0.0182327505        0.0237056147        0.0066975875
  H        -0.0121140101       -0.0034005336        0.0000157489
  H         0.0310543653       -0.0223706612       -0.0073632021
  O         0.0003519207       -0.0089465360        0.0328362203
  H        -0.0129804919       -0.0051559083       -0.0262009950
  H         0.0128386702        0.0081329263       -0.0021144830
  O        -0.0254698184        0.0273702610        0.0080396628
  H         0.0230574789       -0.0211530820       -0.0025769423
  H        -0.0011068478       -0.0071769075       -0.0053017213
  O         0.0372967887        0.0282412210        0.0079273200
  H        -0.0055830816       -0.0041448167        0.0058375029
  H        -0.0293693785       -0.0243596975       -0.0159642115
  O         0.0249825171        0.0314953142        0.0159024117
  H         0.0063760675        0.0019976385        0.0063500627
  H        -0.0301571879       -0.0320142760       -0.0170676484
  K         0.0009113263        0.0011156629       -0.0003794852
      25
 i =     8350, time =     4175.000, E =      -165.5352244419
  O         0.0422520232       -0.0598405951        0.0015503937
  H         0.0070813693        0.0333833625       -0.0129229295
  H        -0.0502064165        0.0249846967        0.0111682572
  O         0.0201390809        0.0130031549       -0.0138834716
  H        -0.0329576486       -0.0121120421        0.0145470791
  H         0.0116712427        0.0039243045       -0.0074811066
  O        -0.0138741181        0.0028779711       -0.0046923302
  H         0.0056857429        0.0047995664        0.0072641483
  H         0.0085204030       -0.0055272005       -0.0041762951
  O        -0.0027224424        0.0642256218       -0.0071964868
  H        -0.0067515425       -0.0132679511        0.0118473927
  H         0.0081053644       -0.0495304880       -0.0045841022
  O        -0.0369450087        0.0100531349       -0.0248306316
  H         0.0243982900        0.0161121213        0.0138704691
  H         0.0155755759       -0.0268187865        0.0095395510
  O         0.0194004033        0.0046896420        0.0325844876
  H        -0.0238430742       -0.0055396320       -0.0268933920
  H         0.0056469985       -0.0019043484        0.0028371093
  O        -0.0387389462        0.0284929416       -0.0169962940
  H         0.0466654506       -0.0181290236        0.0204959349
  H        -0.0081628988       -0.0121627949       -0.0025404812
  O        -0.0062222330       -0.0154796956       -0.0290315024
  H         0.0030155869        0.0069877723        0.0100326438
  H         0.0063076446        0.0096346769        0.0194201896
  K        -0.0038979587       -0.0028555450        0.0007502954
      25
 i =     8820, time =     4410.000, E =      -165.5346884408
  O         0.0132063415       -0.0073087401       -0.0365257868
  H        -0.0066883027        0.0081192217        0.0042551889
  H        -0.0073731798       -0.0054693071        0.0317707644
  O         0.0220145561        0.0187411929       -0.0139345437
  H        -0.0093767077       -0.0042462394        0.0215166513
  H        -0.0136333538       -0.0131882375       -0.0050298834
  O        -0.0237918793       -0.0478146629       -0.0157953890
  H         0.0188497570        0.0470326731        0.0202107336
  H         0.0046284083        0.0014426807       -0.0088861963
  O         0.0237507131        0.0324232193        0.0108258638
  H        -0.0053832271       -0.0005666484        0.0104796667
  H        -0.0157257089       -0.0314620927       -0.0218040601
  O         0.0092667849        0.0461656750       -0.0013776716
  H        -0.0124350594       -0.0057168455       -0.0156813659
  H         0.0044925790       -0.0377634669        0.0150665823
  O         0.0341075874        0.0010074094        0.0483296312
  H        -0.0422851293        0.0030341613       -0.0473160891
  H         0.0076565355       -0.0038790808       -0.0017223306
  O        -0.0278417473        0.0146147974       -0.0197812855
  H         0.0219959977       -0.0115132465        0.0159069717
  H         0.0040109340        0.0042855926        0.0020056555
  O        -0.0139620578       -0.0116512444       -0.0133836831
  H         0.0162476501        0.0106240139       -0.0044384744
  H        -0.0059663979        0.0006483778        0.0111314805
  K         0.0046610122       -0.0069095347        0.0141650356
      25
 i =     9290, time =     4645.000, E =      -165.5320187321
  O        -0.0010661661        0.0272496392       -0.0177052302
  H        -0.0225693465       -0.0240802817        0.0107419744
  H         0.0207559293        0.0037730603        0.0035743496
  O        -0.0028366034       -0.0256936808       -0.0108174581
  H         0.0028265336        0.0345126650        0.0239351352
  H         0.0003221987       -0.0060661401       -0.0169238505
  O        -0.0087045221        0.0295406647       -0.0079368662
  H         0.0094754559       -0.0080538595       -0.0048227853
  H        -0.0026012956       -0.0217861563        0.0102432784
  O        -0.0359828803       -0.0151221719       -0.0192538746
  H         0.0145368173        0.0374196466       -0.0000693650
  H         0.0227411393       -0.0237239723        0.0157856934
  O         0.0011642612       -0.0054763745        0.0165499360
  H        -0.0017239700       -0.0058224264       -0.0043667411
  H         0.0012652500        0.0060816118       -0.0075519165
  O         0.0240613019        0.0535640694        0.0207135919
  H        -0.0047657920       -0.0130003300       -0.0031304546
  H        -0.0180659357       -0.0405283053       -0.0151721653
  O         0.0069282130       -0.0034501401       -0.0163815106
  H        -0.0118981513       -0.0226485223        0.0257061987
  H         0.0066325189        0.0222399824       -0.0074137316
  O         0.0069189601       -0.0255081637        0.0056063091
  H         0.0144297819        0.0058099441        0.0077322486
  H        -0.0193836697        0.0225503670       -0.0139899150
  K        -0.0018396498       -0.0014050173        0.0056315755
      25
 i =     9760, time =     4880.000, E =      -165.5269158381
  O         0.0200596838        0.0014962907       -0.0109391499
  H        -0.0269404238       -0.0049878782        0.0167957658
  H         0.0048073250        0.0005180945       -0.0073289173
  O        -0.0291391518        0.0000906741        0.0010261155
  H         0.0120258858        0.0216118095        0.0184950948
  H         0.0177779324       -0.0187445950       -0.0184952754
  O         0.0432952231        0.0294088995       -0.0318168146
  H        -0.0081383184       -0.0091947996        0.0087724473
  H        -0.0371158105       -0.0218728897        0.0210605444
  O        -0.0096697617       -0.0315955561       -0.0140998310
  H         0.0089152366        0.0273003823        0.0072097008
  H        -0.0019174940        0.0027553429        0.0044457158
  O         0.0171277536        0.0145269037        0.0227522710
  H        -0.0221216957       -0.0145798946       -0.0237818747
  H         0.0046769994       -0.0002257564        0.0033213077
  O        -0.0402302630        0.0127508652       -0.0257409137
  H         0.0318106558       -0.0202276501        0.0197664488
  H         0.0077483640        0.0068350172        0.0086347764
  O         0.0105992801        0.0197808838       -0.0553739779
  H        -0.0179608491       -0.0197178635        0.0424076631
  H         0.0066047755        0.0033733783        0.0113608807
  O         0.0163695829       -0.0163698935        0.0123297299
  H        -0.0011086382       -0.0071875574       -0.0001689720
  H        -0.0132542573        0.0248551275       -0.0111120023
  K         0.0069437113       -0.0016072230        0.0002766625
      25
 i =    10230, time =     5115.000, E =      -165.5298266793
  O         0.0311491035        0.0068592154       -0.0123183648
  H        -0.0318247524       -0.0331377388        0.0199414708
  H         0.0074722658        0.0214293410       -0.0145346229
  O         0.0110172173        0.0034329867        0.0095268111
  H        -0.0099040081       -0.0013768210        0.0034483317
  H        -0.0038645393       -0.0051199695       -0.0107030514
  O        -0.0296153007       -0.0233414446        0.0062478120
  H         0.0074519092        0.0143215463        0.0049095792
  H         0.0207562356        0.0140871311       -0.0066827608
  O         0.0400370830        0.0143408210       -0.0077995169
  H        -0.0233597458        0.0240398965        0.0070496283
  H        -0.0156178818       -0.0367473604        0.0019633229
  O        -0.0184809489       -0.0259865404       -0.0051069349
  H         0.0226169065        0.0161187305        0.0031089704
  H        -0.0023634633        0.0092935298       -0.0017732967
  O         0.0195104100        0.0291065550        0.0060937686
  H         0.0173582486       -0.0064749687        0.0187427303
  H        -0.0318754352       -0.0227458141       -0.0211897205
  O        -0.0064855686        0.0373699475       -0.0299767237
  H         0.0056764116       -0.0324497906        0.0267818356
  H        -0.0023769676       -0.0102845543        0.0032392781
  O        -0.0286018275       -0.0005081929        0.0031964543
  H        -0.0044899996        0.0055125412       -0.0061686193
  H         0.0282772550       -0.0017615942        0.0018092202
  K        -0.0045580571        0.0046709421       -0.0001212600
      25
 i =    10700, time =     5350.000, E =      -165.5181881851
  O        -0.0025304459        0.0025266238       -0.0368506558
  H        -0.0019426279       -0.0102566214        0.0163341353
  H         0.0037476191        0.0097113696        0.0181983275
  O        -0.0153738423       -0.0404666720        0.0378679763
  H         0.0186749831       -0.0192669500       -0.0039608376
  H         0.0008729942        0.0579441299       -0.0379736565
  O        -0.0004263958       -0.0068501666       -0.0121616599
  H        -0.0102761915       -0.0029063451        0.0038655445
  H         0.0098070890        0.0082192015        0.0107210247
  O        -0.0075437236       -0.0091146648       -0.0286474713
  H         0.0063049500        0.0162414467        0.0239597100
  H         0.0001575008       -0.0066109586        0.0030848100
  O         0.0462919168        0.0252510122       -0.0174656843
  H        -0.0088005717       -0.0164356316        0.0137789708
  H        -0.0364301683       -0.0090501175        0.0053021688
  O         0.0056700923        0.0550672310       -0.0346469432
  H        -0.0009484154        0.0047319730        0.0035885069
  H        -0.0032350916       -0.0610868050        0.0286565177
  O        -0.0005278867        0.0515523763        0.0335778230
  H         0.0171579532       -0.0338899396       -0.0146570681
  H        -0.0196022501       -0.0189878169       -0.0187916543
  O         0.0024728990       -0.0252242487        0.0145207225
  H        -0.0142655934       -0.0122712348       -0.0103479158
  H         0.0109364783        0.0353849700       -0.0028811321
  K        -0.0003109677        0.0053803649        0.0043257707
      25
 i =    11170, time =     5585.000, E =      -165.5281943044
  O        -0.0017875855        0.0134323332        0.0176289516
  H         0.0011852524       -0.0083256585       -0.0200891357
  H        -0.0001005468        0.0009609720        0.0019547438
  O         0.0172894229        0.0021483088        0.0001874979
  H        -0.0362660037       -0.0470387367        0.0254184175
  H         0.0248269795        0.0414764259       -0.0252927903
  O         0.0018802168        0.0034518919        0.0072476860
  H        -0.0190237763       -0.0147106654       -0.0055727551
  H         0.0159191157        0.0103531197        0.0014922725
  O         0.0184239426       -0.0111611716        0.0064572607
  H        -0.0076475945        0.0040830773       -0.0033325456
  H        -0.0114044962        0.0051964946       -0.0056751752
  O         0.0067193054       -0.0103784321       -0.0103116499
  H        -0.0035713065        0.0179866758       -0.0059401861
  H        -0.0012734651       -0.0082251943        0.0123737427
  O         0.0135862782       -0.0000478808       -0.0307170606
  H         0.0159248713        0.0212015986        0.0122325422
  H        -0.0289818569       -0.0204616913        0.0158604161
  O         0.0100105074       -0.0013351559        0.0084220899
  H         0.0024606138        0.0003286700       -0.0004442615
  H        -0.0159822418       -0.0016444307       -0.0076151907
  O         0.0002899376       -0.0105970833       -0.0150559043
  H        -0.0013356983        0.0028823316        0.0022451100
  H        -0.0000103797        0.0083503701        0.0119224170
  K        -0.0000231579        0.0032112047        0.0052954366
      25
 i =    11640, time =     5820.000, E =      -165.5400475360
  O         0.0360382169       -0.0037753786       -0.0054244249
  H         0.0027233576       -0.0046582904       -0.0134938804
  H        -0.0335552320        0.0053877307        0.0181230645
  O         0.0007834588       -0.0274696834        0.0105051007
  H        -0.0101404833       -0.0250770215        0.0058501968
  H         0.0069528777        0.0566614614       -0.0151051369
  O        -0.0047988489        0.0114995816        0.0035029749
  H        -0.0021851126       -0.0191497626       -0.0092809210
  H         0.0074062755        0.0090475750        0.0064149440
  O         0.0150871677       -0.0047870034        0.0272851134
  H        -0.0002424727        0.0023028188       -0.0072297243
  H        -0.0137645241        0.0019601366       -0.0220262065
  O         0.0172341925        0.0184106430       -0.0338629176
  H         0.0071682570       -0.0118550851        0.0190488644
  H        -0.0288588467       -0.0071166876        0.0141794354
  O        -0.0350364798        0.0114809141        0.0120013100
  H         0.0293726673        0.0098188752       -0.0256051312
  H         0.0064173670       -0.0212669045        0.0125115496
  O        -0.0127951573        0.0089871890        0.0274468151
  H         0.0261240683       -0.0206799118       -0.0148913780
  H        -0.0130966879        0.0069345318       -0.0126392386
  O        -0.0247547449        0.0190073548       -0.0524739487
  H         0.0035114369       -0.0327942394        0.0153644089
  H         0.0172149843        0.0156002058        0.0315702175
  K         0.0044682078       -0.0001063801        0.0075855171
      25
 i =    12110, time =     6055.000, E =      -165.5243674115
  O         0.0174985097       -0.0076988313       -0.0153727727
  H        -0.0021777049       -0.0012220630        0.0137076843
  H        -0.0158042922        0.0069726676        0.0036694685
  O        -0.0456981593       -0.0082031084       -0.0249782663
  H         0.0044158790       -0.0034342760        0.0038639562
  H         0.0393621833        0.0117268050        0.0239998318
  O         0.0103241065       -0.0015464891        0.0309869449
  H         0.0073438122       -0.0043099730        0.0083209789
  H        -0.0160860735        0.0037512985       -0.0433935656
  O        -0.0018602516       -0.0543512376        0.0079311239
  H        -0.0056378928        0.0495067754       -0.0013954158
  H         0.0047937652        0.0035468979       -0.0057905665
  O        -0.0330022487       -0.0317780857       -0.0012874735
  H         0.0363606401        0.0312137033       -0.0006084777
  H        -0.0049883775        0.0051541452        0.0012362926
  O        -0.0042403595        0.0401267972        0.0453935655
  H         0.0353749419       -0.0298859332       -0.0187137849
  H        -0.0329080226       -0.0146617886       -0.0270242621
  O        -0.0036782298        0.0408410864       -0.0256799710
  H        -0.0027088060       -0.0467696574        0.0143252682
  H         0.0034712919        0.0076487582        0.0077587165
  O         0.0039648561       -0.0053233312       -0.0083986767
  H         0.0096330276        0.0136486270        0.0271553258
  H        -0.0131325772       -0.0074122217       -0.0192470425
  K         0.0081597559        0.0022235924        0.0040133787
      25
 i =    12580, time =     6290.000, E =      -165.5425423998
  O        -0.0119812096        0.0141703986        0.0015947152
  H         0.0068328735       -0.0030580824       -0.0094671764
  H         0.0056698422       -0.0079301167        0.0024283413
  O         0.0185309480       -0.0365806326        0.0139223445
  H        -0.0024409598       -0.0133224234        0.0057108137
  H        -0.0152963607        0.0509241552       -0.0166845562
  O        -0.0365849586        0.0359710012       -0.0304168671
  H         0.0017300098        0.0033639021       -0.0005390723
  H         0.0306762452       -0.0364724432        0.0317458365
  O         0.0255025164       -0.0365801744        0.0216568126
  H         0.0001796049        0.0119881626        0.0046333772
  H        -0.0249671630        0.0222337083       -0.0320732322
  O        -0.0152727826        0.0134589349       -0.0156710858
  H         0.0014521061        0.0152510978        0.0154765923
  H         0.0112275921       -0.0294536581       -0.0014823799
  O         0.0070396879        0.0060173211        0.0085164329
  H        -0.0158753539       -0.0001062660       -0.0083043008
  H         0.0125678161       -0.0052684638       -0.0016478010
  O         0.0090509495       -0.0112364316       -0.0013013318
  H         0.0033503911        0.0093646096        0.0077185589
  H        -0.0122957729       -0.0011224273       -0.0068585144
  O        -0.0084887762       -0.0360652397       -0.0465883414
  H        -0.0042602049       -0.0062970079       -0.0090345424
  H         0.0109401196        0.0421793976        0.0530062560
  K         0.0026053828       -0.0011793416        0.0134221421
      25
 i =    13050, time =     6525.000, E =      -165.5199063864
  O        -0.0193850668        0.0039236004        0.0381518384
  H         0.0174394814       -0.0025998744       -0.0290056638
  H         0.0038591631       -0.0006455590       -0.0086576627
  O        -0.0097075485       -0.0552408516        0.0094177423
  H         0.0040454000       -0.0080080591        0.0005866461
  H         0.0048211605        0.0643084185       -0.0105077666
  O         0.0512331524       -0.0333108863       -0.0247552418
  H        -0.0305816339       -0.0067390917        0.0174544860
  H        -0.0198181480        0.0403669671        0.0074529162
  O         0.0082382826       -0.0066137910        0.0287198214
  H        -0.0009253754       -0.0088414374       -0.0042611315
  H        -0.0039903749        0.0114618669       -0.0258321655
  O        -0.0213467658       -0.0144452627        0.0097400386
  H         0.0098860538        0.0150488963       -0.0057963092
  H         0.0131459054       -0.0003441150       -0.0056467787
  O         0.0005928728       -0.0159200435        0.0310204191
  H         0.0026169617       -0.0041103359        0.0006502025
  H        -0.0033774239        0.0165637456       -0.0343154399
  O        -0.0272702803        0.0164537584        0.0428006832
  H         0.0489173880       -0.0179217907       -0.0295102693
  H        -0.0226589126       -0.0022173745       -0.0145200312
  O         0.0343158326       -0.0022889330       -0.0739200153
  H        -0.0035432544       -0.0202169799        0.0208529062
  H        -0.0288419116        0.0210853431        0.0535373745
  K        -0.0077015965        0.0111643811        0.0078088547
      25
 i =    13520, time =     6760.000, E =      -165.5253428880
  O        -0.0026031600        0.0078935762        0.0018160591
  H         0.0028722548       -0.0028911436       -0.0039382190
  H         0.0018501940       -0.0024552083        0.0017793455
  O         0.0211481182       -0.0481230393        0.0060880146
  H        -0.0322473299        0.0016158975       -0.0011513944
  H         0.0049189079        0.0448584537       -0.0050971674
  O         0.0198573943        0.0247948482       -0.0320546589
  H        -0.0123453811       -0.0423043990        0.0281875042
  H        -0.0056125817        0.0164512479        0.0022646153
  O        -0.0082116337       -0.0104591577        0.0309165395
  H         0.0083462294        0.0084398557       -0.0242291076
  H         0.0018705545        0.0007422054       -0.0079468936
  O         0.0075885159        0.0221523016       -0.0001094030
  H        -0.0184962713       -0.0022026660       -0.0046923397
  H         0.0160439365       -0.0172793869       -0.0000024374
  O         0.0143757670       -0.0471271997        0.0365275159
  H         0.0090019475        0.0388668816       -0.0181347698
  H        -0.0209389405        0.0055703376       -0.0127817878
  O        -0.0007664264        0.0051738279        0.0159112142
  H         0.0031121497       -0.0076689632       -0.0081260486
  H        -0.0012303600        0.0009713561       -0.0072180917
  O         0.0088514958        0.0268497300       -0.0407341827
  H         0.0063427608       -0.0483128986       -0.0078221868
  H        -0.0137274085        0.0199696258        0.0500124875
  K        -0.0097901669        0.0047387976       -0.0004197687
      25
 i =    13990, time =     6995.000, E =      -165.5385445444
  O         0.0274433535       -0.0081029969       -0.0128789023
  H         0.0017939671       -0.0032485215        0.0048103422
  H        -0.0259626392        0.0093845472        0.0107213459
  O        -0.0055385877       -0.0343496304       -0.0011458683
  H         0.0150071599        0.0147124045        0.0007039659
  H        -0.0095433380        0.0171531676       -0.0022955648
  O        -0.0100446385       -0.0063652432        0.0187936210
  H         0.0166005676        0.0311022420       -0.0146806792
  H        -0.0041282005       -0.0241698295       -0.0050678494
  O        -0.0065160826        0.0005687414        0.0061121263
  H        -0.0005047676       -0.0005424151       -0.0017505346
  H         0.0049746552        0.0024516038       -0.0059851197
  O        -0.0480950694        0.0129377352       -0.0105651462
  H         0.0175415948        0.0062101235       -0.0054776462
  H         0.0268649964       -0.0216144570        0.0192806906
  O        -0.0397146407        0.0012500107       -0.0049006097
  H         0.0377578279       -0.0148245383       -0.0040891686