      26
 i =        1, time =        0.000, E =      -180.7680369180
  O        -0.0113675092        0.0012737597        0.0058854735
  H         0.0066944821        0.0072844707       -0.0050964829
  H         0.0075451201       -0.0041783906        0.0014477885
  O        -0.0094227246        0.0113029810       -0.0184715210
  H        -0.0026618241        0.0042830358       -0.0005577513
  H         0.0108341586       -0.0130115331        0.0159118736
  O         0.0111128082        0.0054875355        0.0094748800
  H         0.0189262861       -0.0032578753       -0.0100338679
  H        -0.0291748725       -0.0065049065        0.0027272817
  O         0.0173707453        0.0485700157        0.0042667210
  H        -0.0004285632       -0.0415709612       -0.0093481511
  H        -0.0134141340        0.0003160407        0.0016070138
  O        -0.0053677325        0.0250523583        0.0134208296
  H         0.0077908227       -0.0201385384        0.0093844245
  H        -0.0026298188       -0.0060457730       -0.0210004039
  O         0.0016675727       -0.0017881074        0.0087485714
  H         0.0152750441        0.0030660228       -0.0097349080
  H        -0.0102705980        0.0009339804       -0.0026282277
  O        -0.0251229750        0.0003341495       -0.0463508860
  H         0.0244452219        0.0050554802        0.0148634185
  H         0.0012744359       -0.0073556294        0.0297688875
  O         0.0015691767       -0.0141466965       -0.0162017266
  H        -0.0107240305       -0.0115451169        0.0258935773
  H         0.0056865675        0.0270639024       -0.0083416542
  K        -0.0007661932       -0.0033144424        0.0113320429
 Cl        -0.0090814122       -0.0076133837       -0.0062665544
      26
 i =        2, time =        0.000, E =      -180.7617468529
  O         0.0205342446       -0.0115575819       -0.0486128131
  H         0.0046827512       -0.0034727014        0.0267720131
  H        -0.0220150394        0.0167615831        0.0223847085
  O        -0.0389565418       -0.0059000189        0.0203563048
  H         0.0121443971        0.0003952961        0.0006243538
  H         0.0290633720        0.0045096143       -0.0249900585
  O         0.0106241569       -0.0113626255       -0.0174787223
  H        -0.0031443166        0.0156701927        0.0100764089
  H        -0.0096754763       -0.0095592408        0.0039767819
  O        -0.0076519503        0.0077991075        0.0017314751
  H         0.0038495045       -0.0004192194        0.0054086373
  H         0.0099578761       -0.0095900224       -0.0012014222
  O        -0.0233787274       -0.0015795170       -0.0017630361
  H         0.0085774709        0.0000827523        0.0085378965
  H         0.0054237986       -0.0035100705       -0.0176733859
  O        -0.0238786373        0.0174892450        0.0270997558
  H         0.0150388830       -0.0110181867       -0.0252685460
  H         0.0113246330       -0.0025554824       -0.0010282614
  O         0.0200135649       -0.0229960345       -0.0177232987
  H        -0.0338393040        0.0057197035        0.0073100804
  H         0.0222611146        0.0281530062        0.0179141910
  O        -0.0046261983        0.0088441180        0.0103256257
  H         0.0024417559       -0.0078436412       -0.0129188989
  H        -0.0036878291       -0.0016610985        0.0013966857
  K        -0.0035130201       -0.0063200914        0.0142121436
 Cl        -0.0012889580        0.0045615337       -0.0099310536
      26
 i =        3, time =        0.000, E =      -180.7339237015
  O        -0.0015673198        0.0046917897       -0.0049968705
  H         0.0030267511       -0.0084471631       -0.0196455366
  H        -0.0015584619        0.0015918527        0.0227974559
  O        -0.0131801614       -0.0022681827        0.0093750688
  H         0.0133033808       -0.0019901767       -0.0130095569
  H        -0.0008980152        0.0043266555        0.0035132688
  O         0.0209668578       -0.0469183928       -0.0330694957
  H        -0.0052896260        0.0384900806        0.0221151014
  H        -0.0181121192        0.0075844684        0.0066740928
  O         0.0155554071       -0.0278883867       -0.0031947668
  H        -0.0253497967        0.0341235303       -0.0053632997
  H         0.0125934894       -0.0065082297        0.0097826386
  O         0.0012218970        0.0107476117       -0.0187244135
  H         0.0015336211       -0.0102264950        0.0184687391
  H        -0.0005606385       -0.0054028610        0.0064892118
  O        -0.0223412265        0.0389904405        0.0096175155
  H         0.0064540429       -0.0297273863       -0.0134436292
  H         0.0165909985       -0.0120826197        0.0023103983
  O        -0.0556886168       -0.0230045333        0.0415601524
  H         0.0051402467        0.0177790378        0.0120973997
  H         0.0479601064        0.0040132280       -0.0554139981
  O        -0.0397843136       -0.0240695974       -0.0333635153
  H         0.0105070378        0.0078522737       -0.0063239215
  H         0.0292515531        0.0201766858        0.0264553540
  K        -0.0004118609        0.0040482413        0.0201772099
 Cl         0.0005636540        0.0042206729       -0.0059224228
      26
 i =        4, time =        0.000, E =      -180.7291157566
  O        -0.0274893960        0.0006911196        0.0048424732
  H         0.0362549796       -0.0000509045       -0.0152806154
  H        -0.0102462891        0.0072633799        0.0086033033
  O        -0.0153468828        0.0690184110       -0.0592457021
  H        -0.0007515347       -0.0115828413        0.0520337149
  H         0.0143518719       -0.0540431323        0.0067024926
  O        -0.0280656755       -0.0052091879        0.0048707270
  H        -0.0024187635       -0.0026078676        0.0091773943
  H         0.0361945880        0.0119030334       -0.0140512995
  O        -0.0175223719        0.0339214811       -0.0384148396
  H        -0.0013497330       -0.0017222846        0.0172580269
  H         0.0029389951       -0.0341320785       -0.0040258995
  O         0.0224171060        0.0244490603        0.0276066244
  H        -0.0054196722       -0.0258906448       -0.0006869719
  H        -0.0001810616        0.0032045444       -0.0028107033
  O         0.0021968982        0.0276906274        0.0158210144
  H         0.0079233532       -0.0028005163        0.0026461963
  H        -0.0084563340       -0.0260966912       -0.0185293393
  O        -0.0062468617        0.0080947724        0.0073096277
  H         0.0022738362        0.0080695908        0.0201374253
  H         0.0030863894       -0.0156825785       -0.0268011059
  O        -0.0251714061       -0.0064549635       -0.0073442586
  H        -0.0010307707       -0.0081365627       -0.0032408182
  H         0.0238090112        0.0140876606        0.0078466748
  K         0.0056644459       -0.0180762069        0.0139413765
 Cl        -0.0074020694        0.0021710842       -0.0080459292
      26
 i =        5, time =        0.000, E =      -180.7502920524
  O         0.0407335733        0.0076413607       -0.0126928969
  H        -0.0300086974       -0.0065332765       -0.0029539518
  H        -0.0117422782       -0.0006812739        0.0110572782
  O        -0.0114620433       -0.0423748022       -0.0067824769
  H         0.0091015567        0.0094530648       -0.0036906879
  H        -0.0000371185        0.0300019962        0.0212532147
  O         0.0099682720        0.0146459859       -0.0203094277
  H         0.0039061972       -0.0100686993        0.0232861747
  H        -0.0101478215        0.0050018474       -0.0116630080
  O         0.0132541024       -0.0022158896       -0.0122820588
  H        -0.0091156561       -0.0060370992        0.0091049150
  H        -0.0006425923        0.0071132785        0.0068444527
  O        -0.0397208403       -0.0001039018       -0.0004712935
  H         0.0201425855       -0.0064736188        0.0139806269
  H         0.0169851132        0.0089949670       -0.0179296041
  O        -0.0009062202       -0.0032514699        0.0184672539
  H        -0.0074304668        0.0008777274       -0.0008785148
  H         0.0071320417        0.0035884155       -0.0213873214
  O        -0.0008766225        0.0067110448       -0.0080558796
  H         0.0031127330       -0.0072927164        0.0074308298
  H        -0.0007325276       -0.0035477200        0.0029630616
  O         0.0009496619       -0.0112113098       -0.0282937887
  H        -0.0101378199        0.0103058740        0.0111279869
  H         0.0114776582        0.0033030642        0.0203350469
  K         0.0031212254       -0.0136188924        0.0165774725
 Cl        -0.0068761370        0.0048899454       -0.0154495389
      26
 i =        6, time =        0.000, E =      -180.7611133516
  O         0.0352361361       -0.0079283260       -0.0261888603
  H        -0.0144565062       -0.0024540839       -0.0112444994
  H        -0.0213768342        0.0113568208        0.0340956092
  O        -0.0045810769        0.0189056675        0.0173025643
  H         0.0196619291        0.0059398924       -0.0037760318
  H        -0.0136266747       -0.0205548193       -0.0160161105
  O        -0.0080730032        0.0022527456        0.0066275937
  H        -0.0097604374       -0.0032744441        0.0117477667
  H         0.0137770400        0.0087827737       -0.0219111792
  O         0.0266947151        0.0245405018        0.0199490290
  H         0.0114166126       -0.0213207448       -0.0045693029
  H        -0.0378334712       -0.0021458223       -0.0156789183
  O        -0.0125304494       -0.0110544330        0.0187975570
  H         0.0064779651        0.0015740566       -0.0128048977
  H         0.0067084415        0.0109805340       -0.0024898166
  O        -0.0286910545       -0.0064356315       -0.0056629128
  H         0.0193147817        0.0303304948       -0.0179459598
  H         0.0096888632       -0.0243301357        0.0288338492
  O        -0.0003756519       -0.0097663710       -0.0442922850
  H         0.0015983675        0.0014089351        0.0097796069
  H         0.0010890048        0.0092501070        0.0318814991
  O         0.0184180625        0.0074892979        0.0085040768
  H        -0.0191161716        0.0020290138        0.0033015620
  H        -0.0019929705       -0.0095622756       -0.0124312637
  K         0.0020130369       -0.0124154395        0.0139442823
 Cl         0.0001208693       -0.0035221981       -0.0095014315
      26
 i =        7, time =        0.000, E =      -180.7536064161
  O        -0.0068361602        0.0135115373       -0.0232628599
  H        -0.0036702683       -0.0090706645       -0.0164924685
  H         0.0133726501       -0.0064576701        0.0421323464
  O         0.0047837826        0.0031122641       -0.0032969520
  H         0.0008855866       -0.0018668572       -0.0003782189
  H        -0.0089066973        0.0014889257        0.0082864419
  O         0.0055396066        0.0207844509       -0.0017519599
  H         0.0032087260        0.0092265428        0.0056893795
  H        -0.0014275394       -0.0303609828       -0.0067603347
  O         0.0219176390        0.0231795909        0.0064327752
  H         0.0128963003       -0.0170346362       -0.0162890968
  H        -0.0343932233       -0.0062331186        0.0086281452
  O        -0.0100261199        0.0156660387        0.0033716179
  H        -0.0095905223        0.0038314590        0.0033549120
  H         0.0228690924       -0.0197315914       -0.0064481705
  O         0.0227579810       -0.0477944788        0.0387193917
  H        -0.0059189884        0.0376291561       -0.0321067045
  H        -0.0147457944        0.0064019067       -0.0106695783
  O         0.0141447140        0.0094882633       -0.0007936782
  H        -0.0148366466        0.0107325985        0.0108577658
  H        -0.0015921021       -0.0195668942       -0.0093892633
  O         0.0118148841       -0.0092985369       -0.0105653044
  H        -0.0149201939        0.0119960666        0.0158042809
  H        -0.0018706795       -0.0001634725       -0.0017467694
  K        -0.0122183100       -0.0061932632        0.0000846774
 Cl         0.0076445865        0.0059151279       -0.0027421647
      26
 i =        8, time =        0.000, E =      -180.7566549729
  O         0.0028373592        0.0428736358       -0.0062660414
  H        -0.0168591022       -0.0477614130       -0.0058696550
  H         0.0076551018        0.0017730653        0.0044253981
  O         0.0151316330        0.0027672916        0.0169179624
  H        -0.0011798653        0.0010471492        0.0040668791
  H        -0.0065652070       -0.0081035372       -0.0185484375
  O         0.0226305324        0.0093160321       -0.0014918988
  H        -0.0230040716       -0.0070634101        0.0011053256
  H        -0.0012642242       -0.0060009367        0.0015492199
  O         0.0302798557       -0.0161495140       -0.0281891011
  H        -0.0015073754        0.0102761244        0.0020166526
  H        -0.0176852105       -0.0009539531        0.0240733875
  O         0.0336415960        0.0094588503        0.0306212639
  H        -0.0274335519       -0.0135874553       -0.0086225275
  H         0.0026983586        0.0066397527       -0.0127539520
  O         0.0129556081       -0.0127593415        0.0139807807
  H        -0.0181515572        0.0146448346       -0.0039434773
  H        -0.0054654801        0.0070214408       -0.0131230414
  O        -0.0041373823       -0.0015554108       -0.0225208889
  H         0.0130059825       -0.0050117257       -0.0030291091
  H        -0.0057789492        0.0053337973        0.0251089448
  O         0.0043473895        0.0019265025       -0.0098660882
  H         0.0049688196       -0.0171946610        0.0013140514
  H         0.0001613683        0.0133161836       -0.0025352726
  K        -0.0210521072        0.0082861365        0.0184063696
 Cl        -0.0011996409        0.0010956122       -0.0067152002
      26
 i =        9, time =        0.000, E =      -180.7148696876
  O        -0.0041754598       -0.0176480023        0.0119420577
  H         0.0108308933        0.0014760957       -0.0323444117
  H        -0.0059100555        0.0158575393        0.0209648206
  O         0.0070855586        0.0013657988       -0.0186205910
  H        -0.0059918070       -0.0043176676        0.0092190185
  H        -0.0028618397        0.0025102349        0.0083611424
  O         0.0033952630        0.0217930755       -0.0091544146
  H        -0.0046146332       -0.0238633194        0.0066964870
  H         0.0019189783        0.0026163609        0.0004409045
  O         0.0143865544       -0.0050981821       -0.0133134975
  H        -0.0094116999        0.0035899797       -0.0008734788
  H        -0.0038081894        0.0007856962        0.0139072773
  O         0.0214473236       -0.0092432429        0.0378426676
  H         0.0090923564        0.0209399599       -0.0068096173
  H        -0.0320185053       -0.0130253671       -0.0347793939
  O        -0.0165771786        0.0210573218       -0.0012732941
  H         0.0186108853       -0.0061778973       -0.0154333124
  H        -0.0058784055       -0.0141162644        0.0151069316
  O         0.0159045286        0.0325138525       -0.0231606462
  H        -0.0049569835        0.0056288050        0.0214840786
  H        -0.0115657989       -0.0387311806        0.0016305151
  O        -0.0060654109        0.0151580943        0.0090821410
  H        -0.0104507117       -0.0145197242       -0.0033041499
  H         0.0155177588       -0.0008603012       -0.0071108254
  K         0.0099514071        0.0019596325        0.0152745928
 Cl        -0.0042783086        0.0000771237       -0.0059183884
      26
 i =       10, time =        0.000, E =      -180.7342505667
  O         0.0220655076        0.0194943722       -0.0100945377
  H        -0.0234000703       -0.0042952150        0.0188896052
  H        -0.0023059362       -0.0163104779       -0.0076819516
  O        -0.0047936631       -0.0272407968        0.0015395952
  H        -0.0127124463        0.0376167011       -0.0078630049
  H         0.0099588721       -0.0107385417        0.0109418285
  O         0.0031292693       -0.0170174529       -0.0198307086
  H         0.0092272460        0.0077714929        0.0119053778
  H        -0.0065707800        0.0119716411        0.0099844838
  O        -0.0055589644        0.0009957485       -0.0155884051
  H         0.0032664539        0.0049767901        0.0081746205
  H         0.0016902712       -0.0065613987        0.0068590899
  O         0.0158656694       -0.0128460362        0.0103743870
  H        -0.0025451201        0.0023023026       -0.0203037084
  H        -0.0124308524        0.0103095573        0.0084556614
  O        -0.0033699944        0.0231378473       -0.0294740878
  H         0.0054039266       -0.0111872992        0.0048284355
  H        -0.0057197093       -0.0156204933        0.0254374189
  O        -0.0286388806       -0.0102575912        0.0220556383
  H         0.0177124931        0.0105443806       -0.0108001593
  H         0.0089503370       -0.0011011968       -0.0124480666
  O         0.0243437389       -0.0163179904       -0.0291198325
  H         0.0110040152       -0.0080784947        0.0095099293
  H        -0.0314949315        0.0230552793        0.0139097097
  K         0.0094038566        0.0011055531        0.0085878667
 Cl        -0.0029955266        0.0042169062       -0.0076659019
      26
 i =       11, time =        0.000, E =      -180.7499961441
  O        -0.0099073164       -0.0320542898       -0.0447221754
  H         0.0249458692        0.0172266362        0.0216330634
  H        -0.0127251790        0.0169120034        0.0290468656
  O         0.0012715980        0.0017971561        0.0017071198
  H        -0.0034844107        0.0020324368       -0.0141601609
  H         0.0027881064       -0.0030546142        0.0164798367
  O         0.0158383168        0.0338285769        0.0035227019
  H         0.0083859409       -0.0103820058        0.0081836055
  H        -0.0267709500       -0.0310542157       -0.0109273889
  O        -0.0389289056       -0.0309389541        0.0151999765
  H         0.0048392025        0.0300687065       -0.0355634443
  H         0.0325254774        0.0012538324        0.0166527728
  O         0.0158523684       -0.0092793484        0.0165636700
  H        -0.0149436506        0.0159273885       -0.0187665693
  H        -0.0019816045       -0.0061073628        0.0047532872
  O        -0.0007394187       -0.0001302576       -0.0017388040
  H        -0.0003395627        0.0020003617        0.0053836192
  H        -0.0020018919       -0.0018480577        0.0007177044
  O        -0.0237357988        0.0281425182       -0.0249176268
  H         0.0048692320        0.0010634750        0.0079960034
  H         0.0170448438       -0.0294735343        0.0177654775
  O        -0.0148227615        0.0117344961       -0.0193987628
  H         0.0279236158        0.0032597342       -0.0054462845
  H        -0.0137530775       -0.0143974912        0.0238939930
  K         0.0117045172       -0.0023885841        0.0055729857
 Cl        -0.0043286550        0.0039076580       -0.0193327535
      26
 i =       12, time =        0.000, E =      -180.7590296962
  O        -0.0201729649       -0.0221495455       -0.0049021886
  H        -0.0100719114       -0.0087395265        0.0062133934
  H         0.0338361266        0.0285188841       -0.0042026658
  O        -0.0008228616        0.0122776478        0.0025055115
  H         0.0002448698       -0.0051205264        0.0003618018
  H         0.0062787232       -0.0082972426        0.0005535627
  O         0.0321949220       -0.0161997043        0.0014643693
  H        -0.0115689106        0.0111145791       -0.0095995133
  H        -0.0216726070       -0.0004220175        0.0101150255
  O        -0.0157583347       -0.0033073385       -0.0082585548
  H         0.0043433284        0.0073950363        0.0039321860
  H         0.0099151099       -0.0023207702        0.0036287369
  O         0.0287496429        0.0133479296       -0.0264560087
  H         0.0047151458       -0.0009402120        0.0045788073
  H        -0.0321973260       -0.0158152080        0.0219235707
  O         0.0204828467       -0.0050562254        0.0214465870
  H         0.0043416499        0.0093168613       -0.0288070227
  H        -0.0147674734       -0.0039366619       -0.0006552810
  O         0.0098216020        0.0672590076        0.0018482057
  H        -0.0346071120       -0.0312804681        0.0073172854
  H         0.0201736992       -0.0374061291       -0.0096614417
  O        -0.0176290968        0.0018010312       -0.0134621647
  H         0.0013837353       -0.0027464568        0.0018157866
  H         0.0066939698       -0.0003985902        0.0120622552
  K         0.0001123096        0.0053010286        0.0154668742
 Cl        -0.0036732037        0.0084974892       -0.0098419921
      26
 i =       13, time =        0.000, E =      -180.7671411617
  O        -0.0152880709        0.0024987219       -0.0110431395
  H         0.0132911518        0.0011814436        0.0001808604
  H         0.0066730474       -0.0089803471        0.0098010105
  O         0.0019822570       -0.0169737466       -0.0607282676
  H         0.0138671694       -0.0043239751        0.0163397207
  H        -0.0075052293        0.0147569243        0.0394759777
  O         0.0076431316        0.0111010823       -0.0073347246
  H         0.0055256995        0.0001463351       -0.0006087935
  H        -0.0114888586       -0.0101089534        0.0089747616
  O        -0.0070364967        0.0585994308       -0.0326679794
  H         0.0165324304       -0.0118619154        0.0035233992
  H        -0.0126468156       -0.0454093827        0.0304301826
  O        -0.0270420625       -0.0076335510       -0.0077590878
  H         0.0213870752        0.0064526988       -0.0093941143
  H         0.0044978063        0.0017002196        0.0151019466
  O        -0.0264268358       -0.0126212201        0.0179136757
  H         0.0254585398        0.0060541413       -0.0212639218
  H         0.0048822807        0.0104544789        0.0033558743
  O        -0.0026245159       -0.0105644250       -0.0226650396
  H         0.0028865441        0.0128489076        0.0110446322
  H        -0.0030021168       -0.0054086545        0.0168593267
  O         0.0038392507       -0.0352919879       -0.0107608133
  H         0.0004255435        0.0236907910        0.0103538707
  H        -0.0069035338        0.0087235506       -0.0041561446
  K        -0.0006299233        0.0072166104        0.0168065545
 Cl        -0.0081748300        0.0040386869       -0.0120035424
      26
 i =       14, time =        0.000, E =      -180.7247453155
  O        -0.0155911512        0.0175974868        0.0286713802
  H         0.0218775552       -0.0049656813       -0.0212831717
  H        -0.0070234466       -0.0190500337       -0.0074919744
  O        -0.0015864494       -0.0107796275        0.0074434803
  H        -0.0001232760       -0.0009027334       -0.0057323848
  H         0.0058789412        0.0028679209       -0.0035667592
  O         0.0017729254       -0.0204872692       -0.0286131378
  H        -0.0095176345        0.0259039812        0.0356400571
  H         0.0063257708       -0.0040403087       -0.0031890201
  O        -0.0189390405       -0.0453493566        0.0037771414
  H         0.0016424834        0.0176690072        0.0033748496
  H         0.0164997149        0.0239502337       -0.0052774689
  O        -0.0214149232        0.0349933896       -0.0229495500
  H        -0.0049429004       -0.0112331941       -0.0041244238
  H         0.0235280129       -0.0244287731        0.0189276784
  O         0.0137666739        0.0148126078       -0.0486807675
  H        -0.0010038431       -0.0232952468        0.0361619160
  H        -0.0133117503        0.0089372437        0.0116690539
  O        -0.0109741304       -0.0084724124       -0.0077405182
  H         0.0020458892        0.0011967093        0.0052570551
  H         0.0048592465        0.0106779403        0.0070346228
  O        -0.0047030149       -0.0201231058        0.0049238076
  H         0.0092797528        0.0066154336        0.0028794455
  H        -0.0037350575        0.0118578169       -0.0096827068
  K         0.0164284417        0.0144721478        0.0173408206
 Cl        -0.0104924089        0.0014767729       -0.0143527652
      26
 i =       15, time =        0.000, E =      -180.7308407693
  O        -0.0068423334       -0.0123052034       -0.0238393361
  H         0.0185314561        0.0021021671        0.0026732238
  H        -0.0127834079        0.0035220889        0.0200250925
  O        -0.0011280131       -0.0253606854        0.0038484561
  H         0.0016091301        0.0152009482       -0.0007828321
  H         0.0034186525        0.0085326843       -0.0032030698
  O        -0.0286572521       -0.0184439757       -0.0292739890
  H         0.0226355824       -0.0029993326        0.0152716682
  H         0.0041798694        0.0208730409        0.0131748806
  O        -0.0276536445        0.0041704592        0.0205232147
  H         0.0054451360        0.0025577374       -0.0058775902
  H         0.0227761938       -0.0076516983       -0.0174533604
  O         0.0114235904        0.0124102508        0.0002181292
  H        -0.0009081686       -0.0079034490        0.0036609732
  H        -0.0136854845       -0.0102886746       -0.0012985973
  O        -0.0347066706        0.0318068128        0.0429142018
  H         0.0042247112       -0.0055751703       -0.0107045871
  H         0.0296617939       -0.0250382933       -0.0307015120
  O         0.0053472021        0.0031968752       -0.0506379148
  H         0.0040246762        0.0041201375        0.0450598443
  H        -0.0095476132       -0.0090415965        0.0065800116
  O        -0.0050036842        0.0279462541       -0.0178840397
  H        -0.0014402871       -0.0263984435        0.0366825866
  H         0.0084132381       -0.0015631553       -0.0179360405
  K         0.0101468134        0.0117044781        0.0047571629
 Cl        -0.0090680744        0.0047313077       -0.0065776876
      26
 i =       16, time =        0.000, E =      -180.7487611900
  O        -0.0039964114        0.0028825924       -0.0033774503
  H        -0.0147818722        0.0021717992       -0.0089800531
  H         0.0211178276       -0.0063161783        0.0033989402
  O         0.0040558288        0.0302116468        0.0188823068
  H         0.0032998093       -0.0040391717       -0.0098756104
  H        -0.0084767498       -0.0297878852       -0.0064176492
  O         0.0233596687       -0.0238656414        0.0131957611
  H        -0.0227014350        0.0165932160       -0.0149762212
  H         0.0014338638        0.0028891850        0.0008365228
  O        -0.0152545635       -0.0031965169        0.0087462967
  H         0.0051545123        0.0008690231       -0.0030664134
  H         0.0091800862       -0.0016824163       -0.0006108786
  O        -0.0157867073        0.0105963537        0.0064660482
  H        -0.0006032637        0.0035803681        0.0021652791
  H         0.0160758079       -0.0129088761       -0.0101870349
  O        -0.0494155817        0.0353965654       -0.0347761385
  H         0.0228593037       -0.0302024507        0.0353393170
  H         0.0255973660       -0.0049261158       -0.0014211296
  O        -0.0152960414       -0.0083105846        0.0151219883
  H         0.0033703457        0.0065803694        0.0081188090
  H         0.0112282770        0.0040488860       -0.0229139655
  O        -0.0415191584        0.0211916227       -0.0585572633
  H         0.0174463262       -0.0114923317        0.0547915078
  H         0.0209762263       -0.0079401707        0.0065806546
  K         0.0055015249        0.0098856719        0.0099836967
 Cl        -0.0018697605       -0.0010520516       -0.0088707762
      26
 i =       17, time =        0.000, E =      -180.7415642124
  O         0.0027615590       -0.0190030181       -0.0250910118
  H        -0.0047561006        0.0111918214        0.0133636493
  H        -0.0003493110        0.0069489958        0.0145544965
  O         0.0038750241       -0.0206267607        0.0023534501
  H        -0.0065644981        0.0211362108        0.0076137900
  H         0.0026689311        0.0012070890       -0.0077745809
  O         0.0255393932        0.0112029807       -0.0089665008
  H        -0.0194731427        0.0028819122        0.0157078367
  H        -0.0091610681       -0.0132520747       -0.0064168425
  O        -0.0214572421       -0.0015574992        0.0034989330
  H         0.0092095753       -0.0020181722        0.0331223450
  H         0.0023556015        0.0027514068       -0.0323591180
  O        -0.0083846061        0.0085468107        0.0043517384
  H         0.0111716438       -0.0009120617       -0.0045881192
  H        -0.0023570623       -0.0083096870       -0.0001331219
  O         0.0242658307       -0.0033975471       -0.0211779499
  H        -0.0178229040       -0.0069519332        0.0203113432
  H        -0.0117844430        0.0117916163       -0.0092560328
  O        -0.0146955831        0.0104212456        0.0085957264
  H         0.0050586261       -0.0098703931       -0.0013624951
  H         0.0094850128        0.0022008133       -0.0092420496
  O         0.0027058673       -0.0296392084       -0.0070143331
  H        -0.0039172760        0.0278121923        0.0065050255
  H        -0.0007891527        0.0047402892        0.0018399577
  K         0.0228197640        0.0018670461        0.0098439888
 Cl        -0.0002254873       -0.0097645834       -0.0084584032
      26
 i =       18, time =        0.000, E =      -180.7523670033