      25
 i =        1, time =     3000.000, E =      -185.1055051380
  O        -0.0061386622        0.0445737496        0.0039216053
  H         0.0219910392       -0.0156629257       -0.0121206458
  H        -0.0146857466       -0.0268724909        0.0075960075
  O         0.0154107132       -0.0133415558       -0.0094352721
  H        -0.0051396193        0.0206936780        0.0163179754
  H        -0.0100721020       -0.0050470657       -0.0116861220
  O        -0.0209569344        0.0147582887       -0.0082227991
  H         0.0019198806        0.0092848911       -0.0023857919
  H         0.0144082380       -0.0214375266        0.0102603193
  O         0.0071522130        0.0176372056        0.0020712452
  H        -0.0039223232        0.0007582726        0.0035968174
  H        -0.0048443206       -0.0224625586       -0.0044685409
  O         0.0181650912        0.0030603185        0.0086951734
  H        -0.0151408116        0.0118036249       -0.0349098583
  H        -0.0062147930       -0.0190243529        0.0232947591
  O         0.0502988452       -0.0112843138        0.0031005654
  H        -0.0279304347        0.0228793193       -0.0224809294
  H        -0.0125872187       -0.0144115886        0.0054004300
  O        -0.0303004523        0.0057902221       -0.0244516613
  H        -0.0302391069        0.0162039441        0.0299763697
  H         0.0618876514       -0.0216175841       -0.0053732112
  O        -0.0132336363        0.0130916037       -0.0209542259
  H        -0.0052589999       -0.0064313520        0.0306753298
  H         0.0102297686       -0.0039159695        0.0061131449
 Na         0.0052431245        0.0013491956        0.0053657260
      25
 i =     6500, time =     3250.000, E =      -185.1075187071
  O        -0.0218118275        0.0149515243        0.0110630038
  H         0.0215094053       -0.0083656708       -0.0115693144
  H         0.0023583861       -0.0047301204       -0.0001394699
  O         0.0309072766       -0.0136078419        0.0036600061
  H        -0.0265079165        0.0261599132        0.0139363100
  H        -0.0037404761       -0.0114831743       -0.0209670225
  O        -0.0417384296       -0.0249470125        0.0081085289
  H         0.0451476694        0.0197565791        0.0039723795
  H         0.0055852271        0.0098579521       -0.0084422248
  O         0.0137958389       -0.0240802499       -0.0082304965
  H        -0.0121280059        0.0037059920        0.0073989206
  H        -0.0050834439        0.0180294628       -0.0036357797
  O         0.0047131866       -0.0093826741       -0.0161519454
  H        -0.0045898051        0.0004711527       -0.0051506470
  H        -0.0011312993        0.0043509368        0.0216013938
  O         0.0089014139        0.0065371900        0.0095417278
  H        -0.0099775847        0.0143782782       -0.0311818631
  H        -0.0019892730       -0.0194862955        0.0219969191
  O        -0.0399999519        0.0010376004       -0.0056211906
  H         0.0158383637       -0.0008659987       -0.0094233093
  H         0.0208181088       -0.0039384782        0.0130776362
  O        -0.0054789490        0.0073052195       -0.0283983037
  H        -0.0337913515        0.0042530828        0.0335861216
  H         0.0398357406       -0.0129619163       -0.0002573327
 Na        -0.0004445409        0.0036951775        0.0008153626
      25
 i =     7000, time =     3500.000, E =      -185.1287384223
  O         0.0382179318       -0.0049215537        0.0285242700
  H        -0.0123697506        0.0115737833        0.0022889987
  H        -0.0238436293       -0.0091170701       -0.0246215626
  O         0.0092259674       -0.0153866156       -0.0038734783
  H        -0.0192896121        0.0113798452       -0.0031867550
  H         0.0106380357       -0.0005738415        0.0073741339
  O        -0.0188949115       -0.0079197255       -0.0099394100
  H         0.0209987232        0.0003495557        0.0112316555
  H        -0.0041456829        0.0053750302       -0.0040995483
  O        -0.0189173057        0.0157113479        0.0012779438
  H         0.0084524631       -0.0045809050        0.0030419995
  H         0.0121125671       -0.0088512257       -0.0022754214
  O         0.0097851814       -0.0070340982        0.0425313053
  H        -0.0111411429        0.0097129082       -0.0373420273
  H        -0.0050635477        0.0003144524       -0.0066377791
  O        -0.0128144186       -0.0089598328        0.0219942107
  H        -0.0010337480        0.0103505931       -0.0095564446
  H         0.0164510791        0.0018695381       -0.0105862713
  O        -0.0149388796       -0.0099406836       -0.0263343348
  H        -0.0154786967        0.0216974903        0.0260049685
  H         0.0308739869       -0.0172730471        0.0013240854
  O        -0.0080699568       -0.0048100461       -0.0443761105
  H        -0.0123665815        0.0013285571        0.0270450481
  H         0.0217844380        0.0028384557        0.0129249566
 Na        -0.0017012468        0.0068255547       -0.0022885160
      25
 i =     7500, time =     3750.000, E =      -185.1276828135
  O         0.0457098119        0.0066993384        0.0239343631
  H        -0.0122337179        0.0181262465        0.0019340600
  H        -0.0332243953       -0.0210345872       -0.0295374175
  O         0.0005134452        0.0387385921       -0.0430124314
  H         0.0048031999        0.0028580041        0.0070453984
  H        -0.0061774825       -0.0379023902        0.0380656759
  O         0.0274993702        0.0127433725       -0.0159137696
  H        -0.0197924584       -0.0024407674        0.0064405341
  H        -0.0111507810       -0.0105638983        0.0066001951
  O        -0.0185619885        0.0265351753       -0.0174273664
  H         0.0227191757       -0.0011964005       -0.0028952501
  H        -0.0006637754       -0.0266226051        0.0202912859
  O        -0.0248836937        0.0401820656       -0.0246663839
  H         0.0149678850       -0.0161501412        0.0255369358
  H         0.0129311109       -0.0259176420       -0.0042305655
  O        -0.0174008242       -0.0125905099        0.0104940229
  H         0.0029791875        0.0055124871       -0.0106156845
  H         0.0097004915        0.0104431533        0.0035879380
  O         0.0197552083       -0.0247576218       -0.0285200875
  H        -0.0234722070        0.0283814543        0.0269379906
  H         0.0039419838       -0.0062671161        0.0006342181
  O        -0.0223943312        0.0170309159       -0.0499992342
  H         0.0274292461       -0.0175614958        0.0403835277
  H        -0.0006842523        0.0017841006        0.0099156517
 Na        -0.0025987951       -0.0048674075        0.0055149946
      25
 i =     8000, time =     4000.000, E =      -185.1235215699
  O         0.0223262095       -0.0268813797        0.0007086500
  H        -0.0081443422        0.0227933466        0.0115334349
  H        -0.0150456190        0.0041541063       -0.0162367179
  O        -0.0029756822       -0.0037242995       -0.0106096437
  H        -0.0014181556        0.0022900543        0.0051662788
  H         0.0031397405        0.0045701402        0.0050239671
  O         0.0076117835        0.0018902345       -0.0029064645
  H        -0.0087411491        0.0061071771        0.0035531302
  H         0.0024702190       -0.0094984638       -0.0025416981
  O        -0.0288795019       -0.0323992181       -0.0083850740
  H         0.0330671347        0.0201761524        0.0065659775
  H        -0.0015821782        0.0091697977       -0.0004269687
  O        -0.0341028174        0.0116924582        0.0054715076
  H         0.0154692491       -0.0087320590        0.0264038693
  H         0.0186217965       -0.0020023221       -0.0310951390
  O         0.0221817242        0.0052558618        0.0280513320
  H        -0.0271638422        0.0038255948       -0.0351300360
  H         0.0031626410       -0.0061686282        0.0091390163
  O        -0.0498518125        0.0643793234        0.0409216530
  H         0.0289018791       -0.0423743186       -0.0520231835
  H         0.0198184689       -0.0221106436        0.0090489366
  O        -0.0150210931        0.0219263579        0.0035621404
  H         0.0267006573       -0.0218653640       -0.0093347054
  H        -0.0084671798        0.0016492934        0.0070321519
 Na        -0.0016860160       -0.0032125797        0.0066636977
      25
 i =     8500, time =     4250.000, E =      -185.1037736559
  O        -0.0053762084       -0.0138781678       -0.0239180790
  H         0.0153275835       -0.0038869127        0.0142299718
  H        -0.0125583166        0.0222975590        0.0119962217
  O         0.0407757232       -0.0308728424        0.0226080278
  H        -0.0172141168        0.0207789147       -0.0113157251
  H        -0.0231604618        0.0122509803       -0.0169220765
  O         0.0293755510       -0.0014197885       -0.0114999042
  H        -0.0236540239        0.0096977495       -0.0033564275
  H        -0.0048563658       -0.0124994915        0.0087128050
  O        -0.0073207666       -0.0693493756        0.0035325366
  H         0.0224966444        0.0178785892        0.0011944965
  H        -0.0155046236        0.0469596541       -0.0047097788
  O        -0.0188506410        0.0041013691       -0.0095736353
  H         0.0123034402       -0.0029097933        0.0189263299
  H         0.0066837879       -0.0039887924       -0.0087876010
  O         0.0312668862        0.0310703780       -0.0001330196
  H        -0.0131909015       -0.0094918019       -0.0074639736
  H        -0.0178702173       -0.0139156561        0.0099684730
  O        -0.0333141296       -0.0187926692       -0.0020776798
  H         0.0122878707        0.0251439187        0.0027484918
  H         0.0193390059       -0.0071416806        0.0020148637
  O        -0.0377097700        0.0032767652        0.0081185256
  H         0.0262903201        0.0041104607       -0.0233142485
  H         0.0114632113       -0.0044763699        0.0170995325
 Na         0.0023101481       -0.0047254265        0.0002874911
      25
 i =     9000, time =     4500.000, E =      -185.1033521676
  O         0.0188796185       -0.0241440956       -0.0204616597
  H         0.0113406172       -0.0061754982        0.0122750205
  H        -0.0366806972        0.0343743618        0.0127121296
  O         0.0003411839       -0.0014068048       -0.0099232864
  H         0.0233263367        0.0047812833        0.0111407262
  H        -0.0189490326       -0.0103778147       -0.0030367844
  O        -0.0004434986       -0.0003983532       -0.0095650699
  H        -0.0053304406        0.0124560521        0.0053326892
  H         0.0082797541       -0.0118064169        0.0032405482
  O        -0.0719043842       -0.0246735954       -0.0060525499
  H         0.0651471432        0.0164041713        0.0048167783
  H         0.0057388343        0.0054839824        0.0010132037
  O        -0.0212331729        0.0342194404        0.0283389806
  H         0.0125939691       -0.0181322101       -0.0190759577
  H         0.0101420104       -0.0145415834       -0.0120179309
  O         0.0104589179        0.0041311740        0.0296830444
  H        -0.0226643061        0.0053359148       -0.0215234518
  H         0.0115023381       -0.0049296330       -0.0083914607
  O        -0.0043712172       -0.0056600120        0.0088985752
  H         0.0090593307       -0.0010304649       -0.0036085671
  H        -0.0058711406        0.0029319889       -0.0008329291
  O         0.0202822683        0.0099261178       -0.0054253341
  H        -0.0213747896       -0.0018968212        0.0145242945
  H         0.0014870548       -0.0037062076       -0.0082771837
 Na         0.0003599882       -0.0003322508       -0.0038041599
      25
 i =     9500, time =     4750.000, E =      -185.1247743949
  O        -0.0003411500       -0.0199402737       -0.0213422006
  H        -0.0157783052        0.0259124094        0.0219296241
  H         0.0139339168       -0.0058178083       -0.0028054436
  O         0.0044860217        0.0048752553       -0.0553954046
  H        -0.0085489229       -0.0195136554        0.0492724098
  H         0.0015446958        0.0084705544       -0.0010689823
  O        -0.0053237137       -0.0301660564       -0.0082032253
  H         0.0186568510        0.0245428536        0.0135557930
  H        -0.0044640471        0.0094948580        0.0022979830
  O         0.0039953679        0.0542757101       -0.0033324217
  H        -0.0038632383       -0.0020455428        0.0027203581
  H         0.0023598077       -0.0483157050       -0.0005041541
  O        -0.0026220694       -0.0611049254       -0.0181280866
  H         0.0087776593        0.0127618221        0.0063219262
  H        -0.0081695460        0.0452135181        0.0116219275
  O         0.0221777487       -0.0072018187        0.0015675082
  H        -0.0279650633        0.0032798255       -0.0188444024
  H        -0.0022882395        0.0050693030        0.0148844528
  O         0.0186174293       -0.0138739336       -0.0271706570
  H        -0.0414690721        0.0071057390        0.0085853466
  H         0.0242551509        0.0051655059        0.0187977697
  O        -0.0265761290        0.0115901375       -0.0369844892
  H         0.0197698446       -0.0075776069       -0.0016054080
  H         0.0103324255       -0.0032088125        0.0387879602
 Na        -0.0029672214        0.0012131225        0.0049850035
      25
 i =    10000, time =     5000.000, E =      -185.1225898669
  O         0.0188464566        0.0290219450       -0.0443486759
  H        -0.0132161570       -0.0045384860        0.0379727634
  H        -0.0030377323       -0.0237737652        0.0051847234
  O         0.0444935403       -0.0380344462       -0.0025097945
  H        -0.0064496945        0.0142721618        0.0061973249
  H        -0.0401557363        0.0254654164       -0.0061585194
  O         0.0068470610       -0.0301253805       -0.0066397024
  H        -0.0115629792        0.0004016123       -0.0010369289
  H         0.0029253209        0.0278750245        0.0045434111
  O        -0.0598616041        0.0190368388       -0.0242506861
  H         0.0501473966       -0.0035999342        0.0224745452
  H         0.0085168009       -0.0141427039        0.0005239465
  O        -0.0130280367        0.0130093990        0.0170490554
  H         0.0075667072        0.0006987251       -0.0144833361
  H         0.0073001275       -0.0134041634       -0.0011652904
  O         0.0180143243       -0.0038692801       -0.0341369249
  H        -0.0106415917        0.0102474377        0.0114327080
  H        -0.0082747957       -0.0020006390        0.0220284156
  O        -0.0119866667       -0.0076450246        0.0115458527
  H        -0.0087255423        0.0008579750       -0.0062686076
  H         0.0188279435        0.0047615276       -0.0027523440
  O         0.0118403685        0.0086583136        0.0037285870
  H        -0.0066492727       -0.0037876132       -0.0010933246
  H        -0.0034931743       -0.0033466526       -0.0033347833
 Na         0.0029061445       -0.0052433312        0.0040642683
      25
 i =    10500, time =     5250.000, E =      -185.1219639817
  O         0.0193865652       -0.0132835111       -0.0340118820
  H        -0.0119341294        0.0052087133        0.0346923482
  H        -0.0035017781        0.0088091425       -0.0020983504
  O         0.0456723183       -0.0263070255       -0.0072122252
  H         0.0006061588       -0.0138517345        0.0028064979
  H        -0.0433142067        0.0350233347        0.0018391562
  O         0.0127606631       -0.0191173628       -0.0145963983
  H        -0.0059587754        0.0143679256        0.0068026219
  H        -0.0098011451        0.0080789055        0.0058549554
  O         0.0308760073        0.0109244436        0.0287888069
  H        -0.0363198404        0.0253915754       -0.0198843828
  H         0.0031325461       -0.0372678134       -0.0097721184
  O        -0.0270122278        0.0123798510        0.0110984994
  H         0.0266580974        0.0115269455        0.0056312330
  H         0.0007215404       -0.0246463883       -0.0215796344
  O         0.0016283410        0.0103807394        0.0004365309
  H         0.0011795622        0.0002849588       -0.0043719249
  H        -0.0046235844       -0.0112874908        0.0089253853
  O        -0.0024498333       -0.0008532976        0.0014185362
  H        -0.0044059268       -0.0144214292       -0.0013089524
  H         0.0087895155        0.0197353149        0.0012437190
  O        -0.0176645027       -0.0003952358       -0.0502137173
  H         0.0103314319       -0.0078567746       -0.0033445471
  H         0.0094634158        0.0107654772        0.0545439830
 Na        -0.0053889318       -0.0044563195        0.0036813810
      25
 i =    11000, time =     5500.000, E =      -185.0963851606
  O         0.0185462015        0.0125376909       -0.0169586260
  H        -0.0188065669        0.0315225872        0.0292963689
  H        -0.0041383659       -0.0365180486       -0.0096339774
  O         0.0055375034       -0.0303220362       -0.0415142423
  H        -0.0033721676        0.0049938450        0.0424564303
  H         0.0034295283        0.0194324094       -0.0029225384
  O         0.0276957310       -0.0446872195       -0.0151329988
  H         0.0013808137        0.0199738293       -0.0078268289
  H        -0.0283153343        0.0234218005        0.0239940115
  O         0.0132358920        0.0384148648        0.0015859243
  H        -0.0201245130        0.0196830448       -0.0177430025
  H         0.0075013985       -0.0557626065        0.0166440583
  O         0.0144903298       -0.0153756761       -0.0073605592
  H        -0.0135360072        0.0068186710        0.0026359823
  H        -0.0041812798        0.0092570019        0.0022029041
  O         0.0197263193       -0.0091819672       -0.0259409336
  H        -0.0146582658        0.0020342822       -0.0078078337
  H        -0.0016286003        0.0028205254        0.0293624911
  O        -0.0057477651        0.0360584832       -0.0070415818
  H         0.0146136527        0.0024948658        0.0085026819
  H        -0.0093100665       -0.0365566063       -0.0029370408
  O        -0.0057139389        0.0140488578       -0.0180211124
  H        -0.0064148955       -0.0074511991        0.0059760881
  H         0.0094903031       -0.0062941334        0.0116786082
 Na         0.0008329373       -0.0023949655        0.0069788580
      25
 i =    11500, time =     5750.000, E =      -185.1020030073
  O        -0.0536984387        0.0117222229       -0.0194875341
  H         0.0247799746        0.0294995347        0.0240858018
  H         0.0296539073       -0.0403331047       -0.0037389950
  O         0.0011550718       -0.0213446769       -0.0100626301
  H         0.0064161388        0.0095621013       -0.0006965235
  H        -0.0079891094        0.0112922179        0.0097851299
  O        -0.0068482497        0.0119209578       -0.0173209515
  H        -0.0196051954        0.0274462196       -0.0108011577
  H         0.0258057607       -0.0390747010        0.0253113974
  O         0.0133451413        0.0338401433        0.0052046778
  H        -0.0205712314       -0.0153158045       -0.0118828618
  H         0.0114673676       -0.0231803749        0.0007269083
  O        -0.0220354031       -0.0007858388        0.0066073609
  H         0.0100072176       -0.0078491805        0.0026747139
  H         0.0155875982        0.0118820168       -0.0118543973
  O        -0.0075988320       -0.0048809065        0.0231323712
  H         0.0015629714        0.0022537799       -0.0141419917
  H         0.0017624759       -0.0019769857       -0.0049225924
  O        -0.0215049147        0.0544386112       -0.0274233561
  H         0.0335748522       -0.0109919374        0.0362095504
  H        -0.0137453081       -0.0436977499       -0.0059887627
  O        -0.0044368306       -0.0129536576       -0.0080802056
  H         0.0087279627        0.0000927536        0.0244323630
  H        -0.0043746873        0.0124172894       -0.0173830065
 Na        -0.0010319374        0.0070853967        0.0056350060
      25
 i =    12000, time =     6000.000, E =      -185.1281251659
  O         0.0068312999       -0.0138589147        0.0000763436
  H        -0.0015030732        0.0108573796       -0.0014357165
  H        -0.0097909618        0.0030407017       -0.0024169504
  O         0.0362198700       -0.0124611741       -0.0202742505
  H        -0.0044657249       -0.0280764662        0.0243834606
  H        -0.0292567291        0.0402234125       -0.0047397046
  O         0.0295745168        0.0326567926       -0.0021933038
  H        -0.0150034998       -0.0028446748        0.0011478160
  H        -0.0127667223       -0.0297121656        0.0023204228
  O         0.0156899726        0.0377035905        0.0277385176
  H        -0.0099768312        0.0083621797       -0.0181629827
  H         0.0009319158       -0.0426046735       -0.0091466593
  O        -0.0010655759       -0.0038918399        0.0124194281
  H        -0.0003975557        0.0107972140       -0.0038655044
  H        -0.0002678675       -0.0026813789       -0.0022990279
  O         0.0132925021        0.0336892172       -0.0031819322
  H        -0.0003016211       -0.0005591334        0.0074502848
  H        -0.0123796615       -0.0345235420       -0.0009846224
  O        -0.0161749646       -0.0062915284        0.0092970276
  H         0.0004314539        0.0000282257       -0.0015723250
  H         0.0150262577        0.0013004335       -0.0076600196
  O        -0.0204293639       -0.0028473597        0.0003461702
  H         0.0236480932        0.0026306911       -0.0009769851
  H        -0.0038599655       -0.0022223305       -0.0064810791
 Na        -0.0032748496        0.0009105373        0.0003760511
      25
 i =    12500, time =     6250.000, E =      -185.1055468312
  O         0.0098973791       -0.0072791472       -0.0166609926
  H        -0.0081195429        0.0052075438        0.0086208517
  H        -0.0048547608        0.0025245167        0.0073172913
  O        -0.0383102227        0.0435277893        0.0079220124
  H        -0.0043143951       -0.0066511352        0.0019223636
  H         0.0464349863       -0.0343727799       -0.0070673477
  O         0.0217273231        0.0303808487       -0.0405244455
  H        -0.0288443964       -0.0105348428        0.0319879347
  H         0.0070595392       -0.0245346144        0.0138068965
  O         0.0239563193       -0.0145498209       -0.0060735867
  H        -0.0240893710        0.0042481908       -0.0024652808
  H         0.0042517434        0.0168759387        0.0010494511
  O         0.0523879530        0.0283163996       -0.0158447147
  H         0.0026413576       -0.0036980395        0.0081187637
  H        -0.0548366722       -0.0256510705        0.0010029800
  O         0.0136242815       -0.0301829249        0.0016789079
  H        -0.0005258491        0.0034642030       -0.0032431488
  H        -0.0162112557        0.0266850285        0.0035069640
  O        -0.0220593256        0.0143097206       -0.0195911102
  H         0.0386065877       -0.0008495746        0.0328994095
  H        -0.0182833094       -0.0167721638       -0.0073194955
  O        -0.0004945695        0.0104977211        0.0272564923
  H        -0.0099599762       -0.0101736014       -0.0114869844
  H         0.0142102503       -0.0026828297       -0.0131998612
 Na        -0.0037276700        0.0019254746       -0.0041083170
      25
 i =    13000, time =     6500.000, E =      -185.1144929563
  O        -0.0216110047       -0.0059690799       -0.0141781175
  H         0.0070116491        0.0019986541        0.0040848969
  H         0.0136829797        0.0020837868        0.0082884303
  O         0.0011413718        0.0371548801       -0.0149112569
  H        -0.0127300484       -0.0246643961        0.0151026769
  H         0.0125810620       -0.0117968378        0.0007465344
  O        -0.0099902987        0.0407148200       -0.0202159938
  H         0.0010918084       -0.0047863147        0.0026955226
  H         0.0101453917       -0.0349617465        0.0142941354
  O        -0.0057058918       -0.0130645116       -0.0179272999
  H         0.0045535524       -0.0027078337        0.0124995450
  H         0.0024931117        0.0120209510        0.0020837449
  O         0.0152827005       -0.0024578979       -0.0000666890
  H        -0.0076631072       -0.0016431585       -0.0127182882
  H        -0.0091081096        0.0078832941        0.0133445324
  O         0.0545039873        0.0190567869        0.0198707274
  H        -0.0458469390        0.0034933724       -0.0299833698
  H        -0.0096522412       -0.0247043968        0.0141239436
  O        -0.0315964526       -0.0110810043        0.0463687064
  H         0.0154334761       -0.0204762734       -0.0252610641
  H         0.0247497871        0.0350147266       -0.0205184542
  O        -0.0260148790       -0.0083171742        0.0120254278
  H         0.0013886420       -0.0052896808        0.0064270240
  H         0.0242105874        0.0142917931       -0.0195161110
 Na        -0.0067642946       -0.0032676185        0.0034627434
      25
 i =    13500, time =     6750.000, E =      -185.0869612033
  O         0.0553801688       -0.0304446869       -0.0350476084
  H        -0.0349009137        0.0533903204        0.0265767466
  H        -0.0211532078       -0.0215863251        0.0072939162
  O        -0.0218033261       -0.0047179999        0.0062072042
  H         0.0063279312        0.0240793377        0.0021886873
  H         0.0102274314       -0.0191005820       -0.0121812326
  O         0.0539589928       -0.0158860073       -0.0123392166
  H        -0.0164617861       -0.0374751339        0.0177995676
  H        -0.0377830431        0.0494430166       -0.0035783373
  O        -0.0138551143       -0.0061430976       -0.0012973754
  H         0.0004920045        0.0097718810        0.0004697458
  H         0.0121205591       -0.0019652755       -0.0016623359
  O        -0.0183922885       -0.0288969492       -0.0335725152
  H         0.0255947931        0.0214359759        0.0405583075
  H         0.0016228141        0.0095285870       -0.0049944109
  O         0.0249858909        0.0143133457       -0.0071991113
  H        -0.0041417832       -0.0069783798       -0.0033117450
  H        -0.0205965443       -0.0080100375        0.0063854495
  O        -0.0331144916        0.0053185332       -0.0034158069
  H         0.0010614939        0.0323978304       -0.0021922417
  H         0.0339279948       -0.0380580795        0.0088806840
  O        -0.0087420741       -0.0023713252       -0.0484619799
  H         0.0162079247        0.0116509630        0.0285382673
  H        -0.0075710025       -0.0152426548        0.0226000315
 Na        -0.0038460585        0.0050960062        0.0024970818
      25
 i =    14000, time =     7000.000, E =      -185.1178669195
  O        -0.0049937864        0.0081421222       -0.0052769739
  H         0.0039327961       -0.0090765871       -0.0021247309
  H        -0.0013356582       -0.0004120000        0.0047802698
  O        -0.0299751934        0.0018369629       -0.0039404316
  H         0.0074713715        0.0124122267        0.0095337550
  H         0.0175192686       -0.0116614892       -0.0088606329
  O         0.0182374654       -0.0198672372       -0.0183384739
  H        -0.0007072594       -0.0071780962        0.0102457171
  H        -0.0151344997        0.0217905936        0.0153796544
  O         0.0427597892        0.0136303538       -0.0102420715
  H        -0.0350946956       -0.0067905782        0.0023244238
  H        -0.0069208718        0.0030105517        0.0021828791
  O         0.0118680370        0.0346874396        0.0048355639
  H         0.0010380679       -0.0093506981       -0.0053522395
  H        -0.0026022962       -0.0306006895       -0.0000813904
  O        -0.0119450784        0.0033833161        0.0047855163
  H         0.0072840770       -0.0045244221       -0.0007207187
  H         0.0024661245       -0.0040834292       -0.0014505790
  O        -0.0183515762       -0.0173503521       -0.0070480518
  H         0.0087421699        0.0194342564        0.0021228613
  H         0.0092026585       -0.0001893785        0.0049517814
  O        -0.0235623517       -0.0168900611       -0.0105492470
  H         0.0162400628        0.0012988289        0.0339041936
  H         0.0105706616        0.0160784461       -0.0210934798
 Na        -0.0060815123        0.0033316176        0.0002366674
      25
 i =    14500, time =     7250.000, E =      -185.1164002351
  O         0.0189639471       -0.0196705464       -0.0201106769
  H        -0.0163002909        0.0356187934        0.0161386754
  H        -0.0028226413       -0.0110788293        0.0009300310
  O         0.0236455055        0.0080948677       -0.0028439394
  H        -0.0153902665        0.0098547699        0.0084802967
  H        -0.0131619156       -0.0038684958        0.0001917161
  O         0.0196503024       -0.0067113306       -0.0207088970
  H         0.0004278551       -0.0117229933        0.0179098317
  H        -0.0185032184        0.0120085296        0.0068950082
  O        -0.0187336067        0.0353009299        0.0088972857
  H         0.0203131511       -0.0059451006       -0.0053283560
  H        -0.0029827829       -0.0263883648       -0.0101594847
  O        -0.0133826490       -0.0146973649       -0.0396129277
  H         0.0195397909        0.0031541342        0.0317713762
  H        -0.0048701745        0.0067827681       -0.0002321269
  O        -0.0015435150       -0.0206339913       -0.0163853951
  H         0.0183502101        0.0346829950        0.0250452726