      26
 i =        1, time =        0.000, E =      -200.3691568094
  O         0.0020420074       -0.0030988859       -0.0044601266
  H        -0.0008992752       -0.0093199575        0.0021880962
  H        -0.0032896156        0.0141642782        0.0028398306
  O        -0.0076211027        0.0028055508        0.0015863662
  H        -0.0091076800        0.0006189512       -0.0089478688
  H         0.0192183681       -0.0034818722        0.0072096236
  O         0.0061930478        0.0027136967       -0.0057152412
  H        -0.0007749649       -0.0017578540        0.0070304215
  H        -0.0001753999       -0.0025963391       -0.0013723177
  O         0.0113961201       -0.0045991562        0.0230798269
  H        -0.0173271986        0.0043474656       -0.0043713069
  H         0.0092186026       -0.0047256720       -0.0155516612
  O        -0.0037964600       -0.0000912246        0.0021649217
  H        -0.0063540776       -0.0028971024       -0.0053872954
  H         0.0055670189       -0.0030267358        0.0060145989
  O         0.0192201532        0.0034185019       -0.0324951905
  H        -0.0109000684       -0.0026369604        0.0324685764
  H        -0.0126441145        0.0000140941        0.0005205002
  O         0.0095995363        0.0532272652        0.0209267899
  H         0.0119675395       -0.0265073955        0.0003803740
  H        -0.0246470726       -0.0279547308       -0.0253174072
  O        -0.0136263035        0.0291305730        0.0558848039
  H        -0.0008431301       -0.0127023745       -0.0462869230
  H         0.0122380619       -0.0054998919       -0.0010036337
 Na         0.0078711185       -0.0116542086       -0.0113970773
 Cl        -0.0016018822        0.0128799764       -0.0005657773
      26
 i =        2, time =        0.000, E =      -200.3355290818
  O         0.0121034828       -0.0179783047       -0.0037457059
  H        -0.0042202598        0.0118109061        0.0058633447
  H        -0.0095662536        0.0024168644        0.0000025510
  O        -0.0067338225       -0.0300404581        0.0103726048
  H         0.0030878076        0.0117980066       -0.0139281563
  H         0.0012482429        0.0148611265       -0.0040613042
  O        -0.0010259824       -0.0097288410        0.0005121950
  H         0.0024111663        0.0054582726        0.0013062217
  H        -0.0004930649        0.0058579357       -0.0018278049
  O        -0.0022309613        0.0216175346       -0.0416576582
  H         0.0187751023       -0.0212751371        0.0272658745
  H        -0.0134226019       -0.0006860789        0.0164545169
  O         0.0087022887        0.0286815386        0.0153730972
  H         0.0023330216       -0.0162240718       -0.0120065270
  H        -0.0108190215       -0.0141893627       -0.0017432043
  O         0.0007249314       -0.0312481335        0.0131461847
  H         0.0135294496        0.0173637101       -0.0132259840
  H        -0.0140119688        0.0134017010       -0.0014510831
  O         0.0147393039       -0.0344014960        0.0403420729
  H        -0.0227935498        0.0281903729       -0.0416763398
  H         0.0031206669        0.0051322085        0.0043018448
  O         0.0324887490       -0.0040808412        0.0165840709
  H        -0.0096175774       -0.0082979112       -0.0089106303
  H        -0.0233413557        0.0128798230       -0.0090881729
 Na         0.0035569408        0.0083961787       -0.0007968699
 Cl        -0.0009344683       -0.0004919445        0.0036724889
      26
 i =        3, time =        0.000, E =      -200.3106896801
  O         0.0251376240       -0.0071223852       -0.0119839647
  H        -0.0159098182        0.0027748300        0.0078340689
  H        -0.0074454833       -0.0002188977        0.0000896574
  O        -0.0029810299       -0.0100640352        0.0233646861
  H        -0.0085088824        0.0148197763       -0.0118585440
  H         0.0145449802        0.0010048916       -0.0130150253
  O        -0.0199035642       -0.0417643809        0.0033984474
  H         0.0254710852        0.0321484666        0.0001075394
  H        -0.0030168232        0.0022743954       -0.0010063267
  O        -0.0148102223       -0.0097506615        0.0059283520
  H         0.0059242177        0.0006816335       -0.0109896684
  H         0.0052048792        0.0035433596        0.0022196553
  O         0.0300167970        0.0052827663       -0.0014832990
  H        -0.0019448442       -0.0148805858       -0.0122185212
  H        -0.0280939613        0.0086677489        0.0131535372
  O         0.0116342880        0.0266198924        0.0120295725
  H        -0.0134895350       -0.0232247847       -0.0213700511
  H         0.0001093147        0.0023770524        0.0067343105
  O        -0.0140177134       -0.0208655949       -0.0015029599
  H         0.0172361173        0.0081060160       -0.0029839942
  H        -0.0060913624        0.0105177013        0.0055024188
  O         0.0061764504        0.0095394729        0.0192688292
  H        -0.0068339354       -0.0026068268       -0.0149194426
  H         0.0000002847       -0.0068021443       -0.0020530878
 Na        -0.0072586022        0.0181822693        0.0019999760
 Cl         0.0096080972       -0.0077274010        0.0034215176
      26
 i =        4, time =        0.000, E =      -200.3135704736
  O         0.0623651993        0.0174781849       -0.0404786305
  H        -0.0326951463       -0.0301351177        0.0104577329
  H        -0.0212702818        0.0141626152        0.0245207879
  O         0.0152853084       -0.0118294357       -0.0189654785
  H         0.0042335532        0.0098087496        0.0001902066
  H        -0.0278803360        0.0012841822        0.0168523684
  O        -0.0000326620       -0.0540515267       -0.0069678308
  H        -0.0074595196        0.0250877571       -0.0141217615
  H         0.0056351453        0.0332755869        0.0189189342
  O        -0.0124339854       -0.0290509399       -0.0021682421
  H        -0.0052457498        0.0031556592       -0.0196162974
  H         0.0097515406        0.0245615527        0.0289527167
  O        -0.0137468686        0.0014111598       -0.0219685290
  H         0.0102284011       -0.0041046486        0.0171472720
  H         0.0064138458        0.0026571955       -0.0028417947
  O         0.0166038671       -0.0078006611        0.0244750467
  H        -0.0060584420       -0.0039608047       -0.0159978400
  H        -0.0115280222        0.0117089311       -0.0085153007
  O         0.0142855593        0.0136120917       -0.0008103384
  H        -0.0161668263       -0.0061026616        0.0038540540
  H         0.0087632352       -0.0031950099       -0.0015037185
  O        -0.0204846726        0.0565678611        0.0221695040
  H         0.0084994411       -0.0186753879       -0.0095968736
  H         0.0105650611       -0.0400397521       -0.0091094692
 Na         0.0028788796        0.0141466931        0.0000293419
 Cl         0.0002883680       -0.0194590474        0.0041491449
      26
 i =        5, time =        0.000, E =      -200.3065367885
  O        -0.0335017260       -0.0424453434        0.0056499148
  H         0.0117249575        0.0291353109        0.0086943845
  H         0.0201240428        0.0082854219       -0.0134680911
  O         0.0065717760       -0.0390616691       -0.0187236073
  H         0.0059432177        0.0360348798        0.0051078724
  H        -0.0103474354        0.0040969838        0.0099833335
  O        -0.0001188196       -0.0520069985       -0.0011801336
  H         0.0001898229        0.0145488265       -0.0156215495
  H         0.0016647692        0.0306198029        0.0083893141
  O        -0.0164526359        0.0027683163       -0.0185713636
  H         0.0051283533       -0.0127206184        0.0078962582
  H         0.0119545597        0.0138426492        0.0138539354
  O        -0.0309635075       -0.0052544959        0.0131379100
  H         0.0057822586        0.0080491767       -0.0159667346
  H         0.0163504329       -0.0015394999        0.0004231877
  O        -0.0039825083       -0.0175890241        0.0272093979
  H         0.0152591022        0.0004026419       -0.0101240595
  H        -0.0082322204        0.0160573965       -0.0188864619
  O         0.0110354220       -0.0336965031        0.0075903668
  H         0.0055556497        0.0102716230       -0.0019417490
  H        -0.0173283508        0.0245150643       -0.0078701071
  O         0.0264335609       -0.0242583781       -0.0417783949
  H        -0.0012302289       -0.0088905773       -0.0037689986
  H        -0.0274251195        0.0339096656        0.0473976436
 Na        -0.0024595286        0.0196042718        0.0023996880
 Cl         0.0084131155       -0.0125138135        0.0091723476
      26
 i =        6, time =        0.000, E =      -200.3115008041
  O         0.0162434515        0.0010734498        0.0106530756
  H        -0.0054927469       -0.0102330280       -0.0089211532
  H        -0.0090676028        0.0042466770       -0.0026688464
  O        -0.0135633247       -0.0044083892        0.0211062181
  H         0.0059126470        0.0059314641       -0.0091430238
  H         0.0069380150        0.0009310114       -0.0134659128
  O         0.0183016479        0.0041630659        0.0225244767
  H        -0.0217367585       -0.0100136189       -0.0236673329
  H         0.0022232278        0.0014362355        0.0112066858
  O         0.0200083941        0.0142120605        0.0188678800
  H        -0.0220343928       -0.0119205374       -0.0126399543
  H         0.0002690676       -0.0027324724       -0.0033982089
  O         0.0060111444       -0.0057184882        0.0229220634
  H         0.0023652425       -0.0139111266       -0.0149679644
  H        -0.0110367471        0.0191508416       -0.0085382257
  O        -0.0251309563       -0.0199593911        0.0003321811
  H         0.0085585315        0.0085117440       -0.0092690567
  H         0.0161583756        0.0102584520        0.0033238710
  O        -0.0055251015       -0.0185413258       -0.0120367679
  H         0.0141027050        0.0013909072       -0.0031855678
  H        -0.0128201225        0.0151713227        0.0171741995
  O        -0.0043419764       -0.0338504559       -0.0181158811
  H         0.0255924032        0.0136811790        0.0082852121
  H        -0.0266476643        0.0166589817        0.0124191015
 Na         0.0029783606        0.0201060379       -0.0075528775
 Cl         0.0132731687       -0.0080669190       -0.0005027087
      26
 i =        7, time =        0.000, E =      -200.3152142049
  O         0.0155896741       -0.0328559826       -0.0267130566
  H         0.0128833358        0.0238810131        0.0081132587
  H        -0.0265273426        0.0049994203        0.0207974593
  O        -0.0083271870       -0.0412468433        0.0099237926
  H         0.0049579888        0.0160581915       -0.0166418493
  H         0.0013310733        0.0226955259        0.0099079297
  O         0.0032304241       -0.0284384327       -0.0002705292
  H         0.0003310064        0.0195642358       -0.0017838109
  H        -0.0077875935        0.0072671955        0.0039531011
  O        -0.0149173760        0.0148048394       -0.0016714803
  H         0.0046610279       -0.0115598902       -0.0071235192
  H         0.0087595007       -0.0043302002        0.0089914220
  O        -0.0101036251        0.0018216675       -0.0139682510
  H         0.0010509194       -0.0100589641        0.0166979705
  H         0.0034281109        0.0072546743        0.0026270069
  O        -0.0262517978        0.0003114692       -0.0138037998
  H         0.0448579399       -0.0156780954        0.0029503870
  H        -0.0160469059        0.0118627626        0.0129914547
  O        -0.0125792050       -0.0175720699        0.0115824788
  H         0.0056397689        0.0054970230       -0.0038725785
  H         0.0043659108        0.0090969698       -0.0046618446
  O        -0.0294114472       -0.0350880300        0.0301004453
  H         0.0020008372        0.0177316704       -0.0328782115
  H         0.0323599727        0.0205384970       -0.0044106282
 Na         0.0024552694        0.0229594090       -0.0117521100
 Cl         0.0005956907       -0.0103305241        0.0016360570
      26
 i =        8, time =        0.000, E =      -200.3080041350
  O        -0.0238180884       -0.0407371005        0.0120481069
  H         0.0270770029        0.0337617328       -0.0114043110
  H        -0.0002568777        0.0045897169        0.0014990442
  O         0.0099829134        0.0179686578        0.0028678644
  H        -0.0166435298       -0.0094884725       -0.0018181621
  H         0.0061245069       -0.0098859334       -0.0009235494
  O        -0.0040285287        0.0227523584        0.0075537950
  H         0.0019086721       -0.0125114329        0.0088423635
  H        -0.0039568783       -0.0113260599       -0.0135289048
  O        -0.0126670120       -0.0341856866       -0.0100771379
  H         0.0100946674        0.0125939915        0.0075348210
  H        -0.0029420794        0.0200765188        0.0087791322
  O         0.0144624632        0.0205457039        0.0286038792
  H        -0.0151953498       -0.0176676637       -0.0258603885
  H        -0.0006470173       -0.0032985914       -0.0033700850
  O         0.0171893178       -0.0146341558        0.0343397177
  H        -0.0158262965        0.0098301628       -0.0110613308
  H        -0.0004566689        0.0021769002       -0.0194573761
  O        -0.0181305505        0.0099281716        0.0084566373
  H         0.0084891677       -0.0028774446       -0.0114250704
  H         0.0115049876       -0.0082364102       -0.0050835621
  O         0.0158835853       -0.0050838132       -0.0203563324
  H         0.0056268749        0.0204545339        0.0181040524
  H        -0.0222177638       -0.0157658136        0.0037359375
 Na        -0.0048620853        0.0223702098       -0.0090358929
 Cl         0.0131120725       -0.0104313528        0.0017565359
      26
 i =        9, time =        0.000, E =      -200.3029044206
  O        -0.0000410563       -0.0130214326       -0.0348031240
  H        -0.0028579340       -0.0055458964        0.0087875964
  H         0.0010461063        0.0161098856        0.0282711126
  O         0.0207403955        0.0054088668        0.0070182249
  H        -0.0211063828       -0.0124224394       -0.0012869674
  H        -0.0009086725        0.0046639165       -0.0015990581
  O         0.0118330559        0.0014868752        0.0153158042
  H        -0.0107692965        0.0038855767       -0.0079552960
  H        -0.0053109385       -0.0052734752       -0.0063786473
  O        -0.0530649335       -0.0157679327        0.0160636022
  H         0.0224479890        0.0084203556        0.0224364244
  H         0.0299215367        0.0042530961       -0.0346591441
  O         0.0004593160        0.0192782179       -0.0077110442
  H        -0.0056671437       -0.0183475913        0.0173330094
  H         0.0023315849       -0.0001203154       -0.0087776446
  O         0.0110697945       -0.0072932553       -0.0208651820
  H         0.0091145585        0.0237943703        0.0157622185
  H        -0.0208078429       -0.0212792968        0.0034177650
  O         0.0125755898       -0.0305476827        0.0237694249
  H        -0.0061497073        0.0167568698       -0.0133702829
  H        -0.0055945598        0.0121305828       -0.0078276618
  O         0.0029528993       -0.0034003501        0.0521783650
  H         0.0089067874       -0.0087755280       -0.0181296210
  H        -0.0141846639        0.0149647536       -0.0321813465
 Na         0.0020554092        0.0157759264       -0.0130351251
 Cl         0.0118756138       -0.0043986811       -0.0007431734
      26
 i =       10, time =        0.000, E =      -200.3028318891
  O         0.0226809513        0.0009495047       -0.0235023255
  H        -0.0062007572       -0.0186202028        0.0123089048
  H        -0.0122591395        0.0141434095        0.0109711204
  O        -0.0255419565       -0.0285028979        0.0029341149
  H         0.0187155005        0.0077852448        0.0044336464
  H         0.0050404614        0.0148553445       -0.0037626610
  O         0.0304555807        0.0021705659        0.0244535349
  H        -0.0089967038       -0.0128118377       -0.0171951603
  H        -0.0233393031        0.0097746443       -0.0049070596
  O         0.0015175226        0.0395299019       -0.0150135292
  H        -0.0009941653       -0.0228764537        0.0277638631
  H        -0.0029299587       -0.0153169191       -0.0107419211
  O        -0.0116446662       -0.0120249660        0.0088688162
  H         0.0038009229        0.0066557628        0.0036860741
  H         0.0069291239        0.0021500106       -0.0116022278
  O         0.0189149351       -0.0074568190       -0.0134036638
  H         0.0001592035        0.0072419511        0.0092605970
  H        -0.0213952297        0.0002987451        0.0033454578
  O        -0.0029340485        0.0204152815       -0.0052448536
  H        -0.0080364553        0.0017397743       -0.0124140602
  H         0.0117618882       -0.0255260683        0.0215121390
  O         0.0158868263        0.0012405058       -0.0318217888
  H        -0.0171101735        0.0019439792        0.0269940668
  H         0.0025642616       -0.0012858356        0.0026755475
 Na        -0.0096485243        0.0224902869       -0.0092511096
 Cl         0.0136031151       -0.0097712172       -0.0000761943
      26
 i =       11, time =        0.000, E =      -200.3024058170
  O         0.0069139323       -0.0320423771        0.0042507795
  H        -0.0090380315        0.0083065080       -0.0007885225
  H        -0.0029344633        0.0195566981       -0.0002656021
  O        -0.0198468800       -0.0195297156       -0.0039949223
  H         0.0107790449        0.0029713344        0.0041091434
  H         0.0072190277        0.0165242713        0.0030142631
  O        -0.0109192252       -0.0326215907       -0.0013010025
  H         0.0083177664        0.0231454444       -0.0082037862
  H        -0.0005400038        0.0121377237        0.0103243854
  O         0.0252866302        0.0035191937       -0.0183526448
  H         0.0119913676        0.0044275631       -0.0059488723
  H        -0.0368388254       -0.0108037659        0.0231030205
  O         0.0178196126       -0.0396086348        0.0159656970
  H        -0.0098150038        0.0273449833       -0.0132590697
  H        -0.0061997279        0.0102961889       -0.0061243856
  O         0.0205812544       -0.0120662295        0.0098585525
  H        -0.0105133666        0.0053378751       -0.0091258751
  H        -0.0104748772        0.0059398237        0.0007169788
  O         0.0104405895       -0.0298411188       -0.0121417267
  H         0.0044706672        0.0091521358        0.0115866408
  H        -0.0156773778        0.0194658993        0.0026035201
  O        -0.0132978004        0.0463663087       -0.0248866765
  H         0.0106555319       -0.0176817266        0.0316673839
  H         0.0011897251       -0.0298718269       -0.0078699712
 Na        -0.0022709659        0.0118540247       -0.0112962790
 Cl         0.0102425927       -0.0023223114        0.0069976623
      26
 i =       12, time =        0.000, E =      -200.2949377882
  O         0.0120785889       -0.0065095386        0.0011164490
  H        -0.0044496973        0.0015391720       -0.0015553319
  H        -0.0016437253        0.0072657403        0.0003111753
  O         0.0009104993       -0.0402480634        0.0479091600
  H        -0.0047692487        0.0340929837       -0.0176835356
  H        -0.0001731337        0.0055181725       -0.0242529152
  O        -0.0091555998        0.0541001789        0.0214773651
  H        -0.0026400240       -0.0182279115        0.0130787931
  H         0.0100580992       -0.0355726478       -0.0340565157
  O        -0.0073265295        0.0071245999        0.0014198318
  H        -0.0054037284       -0.0069027537        0.0135129905
  H         0.0111549581       -0.0026421828       -0.0112396670
  O         0.0139583203       -0.0368327203        0.0346530723
  H        -0.0021366075        0.0280788485       -0.0278152250
  H        -0.0106962981        0.0037627341       -0.0161945481
  O         0.0201719768       -0.0259178281        0.0076453926
  H        -0.0054859264        0.0217275610        0.0035936731
  H        -0.0154977819        0.0035011048       -0.0104630713
  O         0.0574581988        0.0021594055       -0.0111678353
  H        -0.0127105657       -0.0103598244       -0.0150041457
  H        -0.0449163325        0.0032772360        0.0269346885
  O         0.0040581574       -0.0172351897        0.0044146167
  H        -0.0064314055        0.0114079938        0.0069707926
  H         0.0016219103        0.0071912045       -0.0098469630
 Na        -0.0083002576        0.0211271165       -0.0064788463
 Cl         0.0099800236       -0.0121583712        0.0026027365
      26
 i =       13, time =        0.000, E =      -200.3372784346
  O         0.0047025800       -0.0369497652        0.0262092529
  H        -0.0073617379        0.0216624622       -0.0008899802
  H         0.0059196546        0.0103037743       -0.0281754144
  O         0.0205383339       -0.0047035797        0.0075242809
  H        -0.0112504245       -0.0223540381        0.0034414362
  H        -0.0128356792        0.0212905621       -0.0058906810
  O        -0.0067461850        0.0603258086        0.0105130681
  H         0.0067844965       -0.0254928517        0.0219697457
  H         0.0017834491       -0.0266608226       -0.0265975015
  O         0.0247075465       -0.0174467087        0.0251374150
  H        -0.0032431849        0.0023304294       -0.0059531623
  H        -0.0244137281        0.0152959086       -0.0156693600
  O        -0.0044320696       -0.0008304048        0.0054793695
  H        -0.0021540456        0.0006244359        0.0024782493
  H         0.0029135183       -0.0023189311       -0.0048106344
  O         0.0087732286        0.0016783466       -0.0176007956
  H        -0.0119501359        0.0054282629        0.0201375482
  H         0.0049160446       -0.0054388012       -0.0026741833
  O         0.0116520310       -0.0027106799        0.0078704526
  H        -0.0043782338        0.0001474672       -0.0024391529
  H        -0.0083853017        0.0040499942       -0.0047595746
  O        -0.0098224946       -0.0210651000        0.0165530793
  H         0.0017823573        0.0120888864       -0.0159484320
  H         0.0099277744        0.0034657828       -0.0076451424
 Na        -0.0049574845        0.0086964502       -0.0126758839
 Cl         0.0062356368       -0.0008109051        0.0031575330
      26
 i =       14, time =        0.000, E =      -200.3036095243
  O         0.0450524668       -0.0381012339        0.0099749192
  H        -0.0091362177        0.0168096832        0.0003741871
  H        -0.0366489318        0.0133186761       -0.0055249133
  O         0.0171312288       -0.0087090453        0.0135405520
  H         0.0042310093       -0.0160658034        0.0039081287
  H        -0.0169277516        0.0234017818       -0.0131429890
  O         0.0056539045        0.0277622157        0.0042623267
  H         0.0017822581        0.0035787334        0.0100009241
  H        -0.0077473081       -0.0338936561       -0.0137516383
  O         0.0235191774       -0.0218584533        0.0123382501
  H        -0.0056524111        0.0103427482       -0.0174524336
  H        -0.0172688022        0.0068480674        0.0092419316
  O         0.0006611218       -0.0133913552        0.0020898180
  H         0.0100505809        0.0156954171       -0.0032775840
  H        -0.0164527073       -0.0021518528       -0.0045118256
  O         0.0183561091        0.0073636336        0.0054111617
  H         0.0033605975        0.0008695520       -0.0031467674
  H        -0.0199502445       -0.0124709555        0.0008645589
  O         0.0357088897       -0.0086881263       -0.0122210520
  H        -0.0290006330        0.0122055473        0.0067074291
  H        -0.0026939733        0.0027101453        0.0046727711
  O         0.0235464592       -0.0124945544        0.0157506511
  H         0.0072775820       -0.0080096154       -0.0041145245
  H        -0.0323179054        0.0204069733       -0.0108010350
 Na        -0.0073946224        0.0193402877       -0.0166602576
 Cl         0.0066566466       -0.0045895171        0.0048719441
      26
 i =       15, time =        0.000, E =      -200.3125687321
  O         0.0029028147       -0.0629139398        0.0111877162
  H         0.0074748861        0.0464944840        0.0021790536
  H        -0.0090528797        0.0115320963       -0.0065176418
  O         0.0578762489       -0.0106847412       -0.0084650427
  H        -0.0208864571       -0.0163631754        0.0040583281
  H        -0.0385744032        0.0276604720        0.0028452332
  O        -0.0073564834       -0.0264756005        0.0286422503
  H         0.0099758139        0.0301595643       -0.0296723421
  H        -0.0065034506       -0.0052274648       -0.0012956802
  O         0.0284546585        0.0008474315       -0.0350484792
  H        -0.0003609852        0.0064823456        0.0259763412
  H        -0.0266564964       -0.0069527637        0.0075839704
  O        -0.0062602524        0.0521837078       -0.0014617155
  H        -0.0044123616       -0.0262880034        0.0036864616
  H         0.0057513481       -0.0211247721        0.0036904530
  O        -0.0056240010       -0.0004933788        0.0015945608
  H         0.0002637013        0.0013328745       -0.0011810873
  H         0.0031026675       -0.0013102759        0.0001930447
  O        -0.0164324449        0.0147587633        0.0082960737
  H         0.0077905233       -0.0275227671       -0.0084649663
  H         0.0105214880        0.0091457525       -0.0010559221
  O         0.0046026526       -0.0115942511        0.0221451431
  H        -0.0116994749        0.0088761846       -0.0139980277
  H         0.0037514487        0.0031426659       -0.0029188279
 Na        -0.0015366742        0.0088100763       -0.0081064042
 Cl         0.0124057562       -0.0052401106       -0.0033812562
      26
 i =       16, time =        0.000, E =      -200.2976742610
  O        -0.0097243297        0.0043416641        0.0061081156
  H        -0.0054553937       -0.0023209361       -0.0022418285
  H         0.0169592943       -0.0104649908       -0.0071370867
  O         0.0074880070        0.0091586287        0.0036123929
  H         0.0041578883       -0.0051977108        0.0093154833
  H        -0.0122355432       -0.0077318561       -0.0104904261
  O         0.0159488656       -0.0255889022       -0.0274857140
  H        -0.0065126359        0.0248855047       -0.0096118780
  H        -0.0062748555       -0.0008578680        0.0390072879
  O         0.0194787012        0.0316037998        0.0035570349
  H         0.0040296330       -0.0240423241        0.0032985708
  H        -0.0198977312       -0.0155641972       -0.0066075931
  O         0.0177054933       -0.0027628719        0.0179925118
  H        -0.0089071795        0.0099680834       -0.0308083687
  H        -0.0084483409       -0.0049235992        0.0133973038
  O        -0.0145422694       -0.0184186591       -0.0287789412
  H         0.0166132759        0.0020298287       -0.0015556670
  H        -0.0048246274        0.0212947175        0.0312001407
  O         0.0116553324       -0.0214666254        0.0018739512
  H         0.0142136904       -0.0172398536       -0.0061065771
  H        -0.0280785362        0.0391292394        0.0042935410
  O        -0.0021879564       -0.0014045912       -0.0058836244
  H         0.0090587890        0.0065387263        0.0049230964
  H        -0.0067731928       -0.0044144590        0.0019897329
 Na        -0.0159059058        0.0174871751       -0.0104750282
 Cl         0.0134144690       -0.0063637604        0.0064242631
      26
 i =       17, time =        0.000, E =      -200.3027273597
  O         0.0000349237       -0.0111734550        0.0545771776
  H         0.0051609066        0.0110667516       -0.0307754932
  H        -0.0047333502       -0.0030934659       -0.0255289105
  O         0.0197119512       -0.0138858364        0.0226825053
  H        -0.0007010113       -0.0095922077       -0.0053483493
  H        -0.0143894846        0.0166980713       -0.0128185627
  O         0.0105708874        0.0182034124        0.0128592183
  H         0.0041421531       -0.0184218096       -0.0063750819
  H        -0.0179333803       -0.0035481778       -0.0012572904
  O         0.0111396717       -0.0093244159        0.0200028893
  H        -0.0052923125        0.0106073428       -0.0265788842
  H        -0.0022504075       -0.0070044377        0.0080065446
  O         0.0038073840       -0.0010314455        0.0178854188
  H         0.0032226788        0.0010453778       -0.0018129098
  H        -0.0045842646        0.0066785384       -0.0140915885
  O         0.0295268389        0.0100987302       -0.0083577060
  H        -0.0144963816       -0.0080454605        0.0165113936
  H        -0.0225271038       -0.0017796537       -0.0138193460
  O         0.0218817439        0.0240367240        0.0452125060
  H         0.0034028827       -0.0075584123        0.0012002340
  H        -0.0253198574       -0.0186088621       -0.0460241748
  O        -0.0088080130       -0.0022452399       -0.0080273486
  H         0.0058890763        0.0050376512        0.0046325996
  H         0.0009142613       -0.0048226219        0.0039447747
 Na        -0.0155204987        0.0230105522       -0.0104672108
 Cl         0.0149031903       -0.0080220163        0.0031951692
      26
 i =       18, time =        0.000, E =      -200.2944971354